192
Lattice="13.147255239092418 -4.122824127051776e-18 3.504182634744533e-17 0.41362256716357165 12.98888405639301 6.508526009541163e-18 -0.447044867277158 0.339213077920435 12.326753488093415" Properties=species:S:1:pos:R:3:forces:R:3 energy=-1405.1478000417098 stress="-0.02095202181264459 0.016945742637406995 -0.021458158788393012 0.016945742637406995 -0.0368565501279249 0.014060468196559976 -0.021458158788393012 0.014060468196559976 -0.051696680056885935" pbc="T T T"
Li       6.26158077       0.11253033       9.13578213       0.62407235       1.00866646       0.93122924
Li       6.29992109       0.07147483       3.19237145       1.99777202       0.81977164      -1.04983731
Li       6.56508585       6.61110512       6.05162092      -0.00301635      -0.50077717       0.94253387
Li      -0.29914493       0.06424814       6.12626978       0.00959955       0.75152958       1.00725930
Li       8.94229419       2.22265199      -0.02192703       0.36644065       1.25076445       0.21294576
Li       4.10688354       2.36930733       6.13322032      -0.65243782       1.36346263       0.05087803
Li       2.19206962       2.48812713       3.16727015       2.32583594       0.45830646      -0.09300207
Li      10.57022906       2.71623312       9.37314603      -0.25338415       0.19982133      -0.23251632
Li       4.01612678       4.35226592       9.40687448      -0.47562288       0.06461119      -0.23811401
Li       8.99240308       4.21533044       2.89168346      -0.57768487       0.27237450       0.88291802
Li      10.66129808       4.11182626       6.15866480      -0.86487997       0.87781176      -0.30203748
Li       8.89959404      10.85510088       6.07739408       0.53969363       0.13277000       0.72955281
Li       4.21461962       1.20013731       3.90236126       0.08833238       0.03022367      -0.30910814
Li       8.40508969       1.49900369      10.08905002      -0.17020492      -0.98267425       0.05010037
Li       1.08137501      11.09370454       7.09848365       0.93427311       0.12819724       0.12439176
Li       5.32165019       4.43312127       6.97111851       0.36221971       0.82918301       0.10887806
Li       8.72717844       5.75729412       5.37372388      -0.04888032      -1.45856117      -0.80029703
Li      11.18402674      12.16031902       5.25644629      -0.39763547      -0.91835785       0.39757082
Li       5.18571951       2.34793209       8.29755617      -0.11967916       0.20965189       0.94948923
Li       7.75710610       2.12905578       2.33127323      -0.74376788       0.33650738      -0.55125507
Li      11.22731103       5.51488191       3.93426424      -0.83386891       0.50902957      -0.08302172
Li       1.98113356       5.87573872      10.06005698      -0.13370288      -1.05324904      -0.42194914
Li       7.75531776       8.91656222       6.92168710       0.07540018      -0.10413172       0.72598444
Li      11.77036020       2.34577589       6.94712567       0.35161568       0.06551779       0.98945585
Li       1.82620097       1.20159069       5.23038340       0.60048421      -0.20425759       0.57887288
Li       4.58843293       7.61860358       5.40982659      -0.32483001      -0.34800898      -0.69762240
Li      12.01147010       4.75512609       8.41708329      -0.01415557      -0.30573031      -0.34736041
Li       1.05247901       4.54463301       2.16926579       0.83194288      -0.34036206       0.43055717
Li      -0.03804380       6.46622300       3.06075798       0.81307953       0.54425306       0.09131286
Li      -0.16028275       6.75399578       9.20795022       0.94434750      -0.11607692       0.26330495
Li      -0.02836967       0.05351670       0.01670297      -0.78583643      -0.17177674      -0.24309956
Li       6.86054526       6.41649724       0.00495212      -1.17047429      -0.00633944       0.16381261
Li       2.46771949       8.95453044       6.00066098       0.09162373       0.39786743       0.38874832
Li      11.02762686       8.69023247      -0.02123484       0.04861782       0.83537186      -0.09004755
Li       8.93396332       9.07213046       9.06598126       0.44423014       0.31897341       0.30398303
Li       4.46853223       8.90357087       3.16375385      -0.86035046      -0.58492712       0.15049643
Li      11.09116149      10.80807548       3.10362981      -0.12728006      -1.56935821      -0.55006287
Li       2.49269731      10.73373924       9.26041345      -0.27507042       0.95255759      -0.10619851
Li       4.39830542      10.57629169      -0.11765060       0.15825857      -1.04307483      -0.60704295
Li       2.56784830       4.21390380      -0.17774914       0.23757193      -0.41622591       0.50165198
Li      11.00281118       7.84758311      10.15290728      -0.34059122      -0.98291523      -0.38678724
Li       2.22679273       7.84277446       3.97071829       0.14427610      -1.94079043      -0.24671448
Li       7.77387650       4.27860635       0.77203758      -0.10524232       0.92012036       0.70232886
Li      12.41900948      10.78183179       0.75213886      -0.47181208       0.15854281       0.20151135
Li       1.96105882      12.33910179      11.51110529      -0.27392912      -0.54672558      -0.83991187
Li       4.18789969       5.68527962      11.39452090       0.19292910       2.33028520       0.80893200
Li      12.33821793       8.63042776       2.07040171       0.29950420       0.35739632       0.60334880
Li       1.05038349       8.89964974       8.21381029       0.05343617      -0.18567277       1.30140397
Li       4.54167516      12.25730889      10.21680195      -0.47183708      -0.78082315      -1.07681647
Li       8.95048435      12.06767879       3.96172367       0.03286186      -0.43327217      -0.58671015
Li       1.17646378       1.99430868       0.77700851      -0.04728863       0.63971099       0.39760257
Li       5.65324768       8.57508047       0.90908790       0.19788431      -0.50840391      -0.35892612
Li       8.41283502       7.94495452      11.52520496       0.18380279      -0.97507278      -0.17127206
Li      10.56681554       1.33087169      11.35629850       0.36168673       0.05521718       0.76369105
Li       5.82803678      10.85936818       2.08075118      -0.08148377      -0.01909909       0.21446489
Li       7.55068952      11.20682457       8.32397029       0.88899874      -0.38461266       0.32521136
La       6.45881184      -0.14187946       0.05120383       2.02909612       1.45519352       0.01791764
La       6.23748346       0.17025532       6.12503940       1.41393139      -1.47130566       0.78356772
La      -0.05036690       0.19899741       3.23322934      -0.53164143      -0.95210916      -3.91176392
La       6.78446270       6.58488216       3.14790247      -0.91368204      -2.99599216      -2.45361418
La      10.00081139       8.24458841       4.69400468       1.18649388       0.23848831      -1.99500019
La       9.89537488       1.68029480       4.60363368      -2.39958604       1.37183565      -0.86693130
La       8.00946816       3.31519841       7.77460824       0.73751635       2.69031628      -0.71686483
La      11.53503379      10.05346865       7.61860069      -1.66358257      -0.66529490       2.00798121
La       9.74584912       5.26176553      10.87449601      -1.45776789      -1.23117562      -1.09274442
La       9.71491683      11.66752788      10.79207981       0.56905516      -1.50508152      -0.51089501
La       8.53568369       9.77160033       1.55887992       1.90745706      -0.24482053      -1.26883035
La      11.41769764       3.34292861       1.69622576       2.48732113      -1.28461249      -1.99218030
La      -0.08504645       6.81001669       6.15604717       1.21831134      -1.43141321       0.04565074
La       0.37086243       6.47359834      -0.04029751      -0.62343258       0.67867166       0.22851699
La       6.40746642       6.82205015       9.24255598       1.34412995      -1.69167320      -0.26698293
La      -0.28248461       0.29536005       9.17724527       0.39655730      -0.58270175       0.92446107
La       2.93946648       1.77428807      10.82530662      -0.49613830       2.72247074      -1.71824253
La       3.17853213       8.36973982      10.67023334      -0.37695799       0.20208669       1.58625995
La       2.05900972       9.89701361       1.60785372      -2.68251178      -2.18013493      -1.77138298
La       4.82549025       3.24819690       1.53496452       2.26334610       2.43180412      -0.41576429
La       3.36938513      11.51847320       4.57186345       0.93989448      -0.93182523       1.95303670
La       3.35321180       4.96743640       4.74686935      -1.01668451       0.70625218      -2.93802830
La       1.39696965       3.39920235       7.57472689       1.76075125       1.45562256       2.64421635
La       4.87436191       9.83082611       7.67203811       1.15724243       1.74396697      -0.02010844
Zr       9.83560491       6.56901112       7.62198719      -0.45058885       0.29534549       2.33555026
Zr       9.69695705       0.36254894       7.70871773      -2.30487501      -4.00202579      -1.78687806
Zr       6.34444404       3.58120876      10.78060108      -0.93660420       1.17707660       0.26252887
Zr       6.40763968       3.20294840       4.62977704       2.17741077       5.55326144      -1.64111736
Zr      10.11180033       6.43088225       1.43135065      -1.87989262       4.44112909       4.25440489
Zr       3.30964590       6.79987725       7.65573541      -2.99528905      -3.17027317       2.72994635
Zr       6.70994002       9.73140765       4.50922772      -0.87759743       3.66256572       1.62545877
Zr      -0.03034818       3.27619946       4.69286979       1.50170262       4.45261422      -2.81850665
Zr       3.25810073      -0.13821445       1.48416611       0.43103800       3.52948616       1.16427716
Zr       3.40162110       6.60896427       1.51405548       3.39516822      -3.32555217       3.25396052
Zr       0.12413222      10.01458066       4.72102850      -0.98446056      -1.56140547      -1.93513330
Zr      -0.12704153      10.07991278      10.68248137       0.19302241      -0.90402119       0.60222301
Zr       3.03891261       0.27209310       7.55719720      -1.99833386      -2.93132336       7.95131936
Zr       9.82469305       0.10581687       1.51491108       1.29746591      -2.73467222       1.25988243
Zr      -0.33568001       3.61466349      10.76799876       2.39028762      -4.38481516       1.63948765
Zr       6.45418835       9.92280614      10.72832533       3.46839131       0.37271297       2.30599506
O       10.68540254       6.14828260       5.72702521      -0.56026777       0.29336356       1.26274878
O        9.44391287      12.58159556       5.72369622      -0.72460457       1.42398130       0.27616447
O        5.90397906       4.28006342       8.71848925      -0.04546029      -0.57511655       2.08405677
O        7.02097086       4.09136646       2.54651820       0.38953957      -0.55521285       2.05642389
O        2.48869537       0.68180187       3.56079216       0.10503928      -2.16758997      -1.46275145
O       10.28327800       0.70928736       9.47831355       0.50370768       1.27561090       2.54959231
O        7.14146406       2.63908846       0.38535399       0.41834817      -0.88403843      -1.41614516
O        6.09439221       2.73940920       6.63370790      -2.05918344      -1.64528856      -1.85353533
O       10.51964272       7.19188985      12.06696336       0.49832157       0.35774818      -2.60808642
O        8.76986766       0.89488456      12.09334222      -1.06470073      -0.78135138      -3.56435454
O       12.53646333       2.65123360       8.81716065      -1.27528944       1.21948724       0.20467444
O        0.60845660       2.50511461       2.73216555      -2.89715298       0.31067671       0.79392226
O        9.18950465       5.98357842       3.41578778       0.23143531       1.95705274       0.15728448
O        3.76354299       6.21554871       9.60843639       0.62255443       0.98865746      -0.05130070
O        0.52791738       4.09254535       0.44885913       0.34991205      -0.90251521      -1.92768031
O       12.56825171       4.08380953       6.47413161      -0.66399662      -0.61883134      -0.26249325
O        1.14877160       0.81257183       7.38501182      -1.96070844       0.50154018      -2.11253313
O        5.11093105       7.36399419       7.30138203       2.30542022       1.00002181      -0.94802948
O        7.16722245       1.56187378       4.06799676       0.82515424      -2.41404599       0.41226704
O        5.59858136       1.72377902      10.37044252      -0.23693958      -0.90352116      -0.43879835
O       11.86204351       5.66948209       1.93009467       2.24589949       0.30204458       1.12103162
O        1.27660924       5.87007026       8.26860703      -0.46109001       0.61014503      -0.95118921
O        5.64293089       5.32073458       5.03069959       1.59561225      -0.51985121       0.44888581
O        1.01946156      11.93923507       5.11464809      -0.18678104      -1.19832592      -0.22945367
O        7.89262805       5.90386509       7.32045903       0.65621773       1.10897279      -0.98098250
O       11.86618738      12.37418053       7.23105599       1.04766506       1.37949254      -0.89812404
O        0.82257332       5.30938381       4.24268418      -1.28277316      -1.01684571       0.20880490
O        6.19250317      11.90628446       4.23216558      -1.25992975      -2.13696097       0.74642544
O       11.87319720       7.48053924       8.10238742      -1.71928383      -1.13655946      -0.74780736
O        7.77001941       0.92045886       8.10735161      -1.05952853      -0.24563217       0.28832018
O       12.28377135       1.50324226       4.86552488      -0.62691161      -1.07562231       2.29910138
O        7.36304854       7.97719008       4.92981338       0.69750787      -1.70597513       2.20261263
O       10.56923401       8.54926336       2.12388253      -1.55631184      -0.75048665       0.19295441
O        9.63905661       1.98760404       2.14467621      -1.84089420       0.79389106       1.45515836
O        8.55313917       3.90660674       5.25736954      -1.32670170      -1.84610120       0.16708249
O        4.20944462       4.08311589      11.45920705       1.35840871      -3.26863160      -1.28478152
O        9.69067406       4.66279683       0.97347889      -1.86747307      -3.29546436      -1.75767422
O        3.59287374       4.86343262       6.91407822      -0.27786818      -0.96586576       1.42353435
O       11.12990203       9.49977806      10.14308522       0.31638967       2.19957030      -0.17054869
O        8.41806084       3.28216590      10.09104141      -1.43917724      -0.21972344       0.90056646
O       10.14885627       4.63993224       8.42777962       0.70528179       0.91456101      -0.37141998
O        9.52014287      11.09851495       8.33822237      -0.04222265       1.48566141      -0.03626877
O        2.01569420       2.98910711       5.28353763      -1.65367008      -0.60953827      -0.01965536
O        4.66408930       9.46177773       5.41762712       0.68071579       0.25602761      -2.13275306
O        9.65570378       8.64262363       7.04584438      -1.36701798      -1.02265039      -0.83466538
O        9.89797787       2.18600219       6.94530654       2.07546123      -0.01980738      -0.60991596
O       11.02771868       3.78102028       3.90358949       1.57909334      -1.80572479       1.39380225
O        8.73716175      10.01936107       3.87336787      -1.22185806       0.96715216       1.01644132
O        3.98140396      12.68754031      11.92912164      -0.22094447       0.98592216       2.35238102
O        2.48567629       6.44004823      12.05130630      -2.11135690      -0.90284334      -3.86672111
O       12.87986190      10.51986525       2.79999104       1.04639523       0.34326205      -0.33167998
O        0.41511252      10.79225243       8.80263565       0.70504658      -0.43954100       0.06604631
O        8.95775916       7.10430981       9.54403789       0.94947034       0.44746117      -0.32326150
O        4.16939192       6.98356510       3.51563412      -0.44779543       1.52009817       0.08011663
O        0.44668379       9.12934620       6.56755196       0.79082710       0.81620144      -1.42391881
O       12.95703637       8.94030268       0.22574101       0.64596657       0.48172019       0.77352401
O        3.68515742       0.67525438       5.93847543       2.47007732       0.66285912      -5.96468234
O        2.56179528       7.02854143       5.91795122      -1.12376222       2.07625719      -2.65478636
O        6.20773845       8.98509635       2.72214534       0.29047858       1.06132547      -0.60036424
O        7.05166206       9.42820958       8.94095845      -0.00262198      -1.40644160      -1.48528369
O        2.69161356      12.77471882       9.70316119       0.17335682       0.09980139      -0.60129861
O       10.88634777      12.43742128       3.43598423       0.23448498       2.59788255       0.60843862
O        6.96381023      10.67407009       6.61352212       0.97615230      -0.42734268      -2.13261864
O        6.48426285      10.54482002       0.27024366      -0.75514993      -0.64580759       1.14120909
O        8.16182272       7.12840749       0.96641195       0.14673506       1.19355534       0.68550449
O       11.71625663       0.81331640       1.07699983       0.98852371      -0.77572574       0.60616131
O        0.55023661       8.16276021      10.18937615       0.87999578      -0.61079682       0.53148242
O       12.52335154       7.94182502       4.13725615       0.40648590       0.87543229       0.80768859
O        5.37646837      12.56275892       8.04779492       0.09589913      -0.13849703       0.21073346
O        8.30189033      12.32176073       2.03567290      -0.44343227      -0.11575107      -0.30305999
O       12.43073585      11.99489925      11.03313920      -0.14703831       0.23327310       1.19264535
O        7.04725018       5.63686266      11.09752589       0.27813576      -2.08127596       0.17438206
O        1.64688146      12.39126743       1.20753769       2.06630803      -0.14412243      -0.03734276
O        5.26065974       5.83787304       1.09627841       1.47871339       0.61419196      -0.09523390
O        7.45956102      11.96997602      10.44743880      -1.64982140       0.05489178      -0.22854905
O       12.20265907       5.35446959      10.47616229      -1.04758742       3.25651384      -1.91811937
O        5.32053543       0.77185799       2.01240038      -2.76056583      -1.41862042      -1.50173147
O        1.57741465       7.17476835       1.81517649      -3.00581391       1.37256369       1.53568017
O        5.63099582       8.00941934      11.10667131       0.37405571       1.17036587       0.23378026
O        0.29463895       1.53307461      11.07473918       0.70131744       0.37698497       1.61073705
O        3.21721458       2.22091174       8.36231882       1.93736137      -0.95426580      -0.48272739
O        2.92337555       8.82235284       8.34931223      -0.55444106      -1.41739695       0.21388040
O        2.02233540      10.46390614      11.47443624      -0.70435158      -0.20708146      -0.09411650
O       11.28844799      10.33816978       5.33199959       0.95740627      -0.71200842      -1.01222141
O        3.00461993      11.05088613       7.10244132      -0.02520810       2.06912678      -0.92459708
O       10.54751098      10.98786167       0.76627762      -0.21550961       0.92619468       0.44136238
O        4.56445450       2.95976401       3.79639934       0.15234685      -0.69237094       2.55597670
O        2.12486116       9.57029686       3.94852460      -0.28459865       0.75140847       1.00099097
O        3.91281169      10.94480265       2.29259600       1.20761498       1.49531952      -0.30302215
O        2.99963161       4.54384826       2.14485333      -0.77928958       0.61418606       0.43459704
O        8.53411806       9.66116204      11.43382601      -0.78627284       0.34012463       0.33150733
O       10.75545472       3.15075493      11.59880131       1.35637275       0.96273397      -1.71086921
O        3.11121154       2.08082988       0.92950664      -2.37715904      -3.66278241      -1.18687988
O        3.81312077       8.39604873       0.79594399       0.82126337       2.75331442      -0.04987173
O        4.68528212      10.25557734      10.18262945      -3.12520523       1.70462295      -1.00851371
O        1.72974673       3.70204934      10.05622223      -1.34456275       0.90080486       1.30135199
192
Lattice="13.839832297449268 -5.238072982727064e-18 3.065255104018351e-17 -0.1499907775025503 13.314090176735428 -1.1912065741259291e-18 -0.5931076290284002 -0.35430721443391916 12.914098399625857" Properties=species:S:1:pos:R:3:forces:R:3 energy=-1403.1218030163682 stress="0.08247429633222314 -0.0036223478333069995 -0.022914028071655847 -0.0036223478333069995 0.05899344633164708 -0.01466878614779299 -0.022914028071655847 -0.01466878614779299 0.057515620308037495" pbc="T T T"
Li       6.52895405      -0.40052175       9.56455672      -0.40436066       0.77279910       0.23090501
Li       6.78335990       0.04904461       3.11779924       0.83080846      -1.05461021       0.92254282
Li       6.53936839       6.43416330       6.46933696       0.17091406       0.73307243      -0.25995047
Li      -0.38798187      -0.29287340       6.54448017       0.42634572       0.61390121      -0.25686795
Li       9.36075960       2.55314547       0.11697303      -0.46311454      -0.19645156       0.52212598
Li       4.22437764       2.14997841       6.49228481      -0.02654788      -0.11722257      -0.25115742
Li       2.26310494       2.28247306       3.35511091      -0.23448781       0.47193104      -0.29019586
Li      10.82256968       1.99073365       9.71212462       0.48092839       0.10391760      -0.49384923
Li       3.96504418       4.03275596       9.71010181      -0.30974813       0.24790615       0.05203002
Li       9.12578900       4.16166163       3.38465054       0.43622791      -0.08711104      -0.55598176
Li      10.84850259       4.09633652       6.53265768       0.27924734      -0.31269398       0.10890324
Li       8.89085716      10.71307884       6.40038222       0.28296798       0.62669463      -0.41631696
Li       4.41954278       0.91538612       4.09720722       0.99440964       0.26475538       0.52939320
Li       8.55995619       0.69885941      10.70322181      -0.03958135       0.33559117       0.25117714
Li       0.80025676      11.03019534       7.28399795      -0.83954243       0.01053390       0.61648670
Li       5.47872539       4.44319631       7.24509622      -0.72606287      -0.12528767       0.34529016
Li       8.88741995       5.36227225       5.48295649       0.17475401       0.56743522       0.10187142
Li      11.17677080      12.07815382       5.52226211      -0.39442673       0.46854599       0.24408104
Li       5.41116363       1.82348967       8.89866955      -0.52736133       0.16101609      -0.63898168
Li       7.88661996       2.19893626       2.29642208       0.27039371      -0.29801232       0.02717595
Li      11.48072297       5.39937937       4.18537989      -0.20685367      -0.35141181      -0.40184328
Li       1.61846421       5.37665375      10.64440906       0.40472148      -0.49867082      -0.01645016
Li       7.72631407       8.74879005       7.30488540      -0.78602247      -0.63276455       0.22944398
Li      12.41226142       1.97790311       7.20396285      -1.02124811      -0.61827206       0.28575852
Li       2.05614002       0.82226991       5.63531351      -0.23216332       0.40318797      -0.39650972
Li       4.25713419       7.44320740       5.67507370       0.34272258       0.60184410      -0.00671035
Li      12.24649024       4.19868998       8.77981819      -0.37197371      -0.14857439      -0.24163875
Li       0.85524947       4.51760574       2.32593868       0.70941804      -0.58986866       0.08873424
Li      -0.23464598       6.38574735       3.25345789      -0.07106832       0.47615273       0.11848923
Li      -0.62803160       6.23971500       9.71124340       0.37362833       0.82861171      -0.21712055
Li       0.02565575       0.02225159      -0.05940418      -0.28851560      -0.11691605       0.04136071
Li       6.97977624       6.71406157       0.01741730      -0.72570990      -0.22186836       0.05974479
Li       2.06248508       8.84120318       6.62308933      -0.14000703      -0.23945747       0.23699059
Li      11.14581291       9.20030920       0.00177465      -0.41429806      -0.96128964       0.49302998
Li       8.89174719       8.91284364       9.59384545      -0.18308730      -1.12963936       0.36325393
Li       4.03970397       8.98370987       3.20923009       0.82825827      -0.13747675       0.25412270
Li      11.16483141      10.70224804       3.32697966      -0.50859959       0.45961786      -0.41693371
Li       1.88275722      10.46266680       9.71446359      -0.25621931       0.44889601      -0.14410575
Li       4.21852697      10.81997200      -0.05394566       0.03360384       0.40772295       0.54088618
Li       2.42097998       4.11662052      -0.12072283       0.04535538       0.61484298       0.24041466
Li      11.10289856       7.54258458      10.71139922      -1.16599129      -0.93104153      -0.59298701
Li       2.10429902       7.64052447       4.24146982      -0.05643340      -0.09295661      -0.16230521
Li       7.87968252       4.47382450       0.87082936       0.37582724       0.05609784       0.00039113
Li      12.43958851      11.19004083       0.81860575       0.22371633      -0.11749744       0.70644833
Li       1.63094004      12.06786286      11.98792847      -0.03169576      -0.54796499       0.11026152
Li       4.09035480       5.18906216      11.95927964      -0.20997392       0.66962039       0.70557953
Li      12.53241228       8.76648478       2.33052556      -0.11825763      -0.18483980      -0.13648977
Li       0.55924163       8.66345778       8.66048737       0.04272985      -0.20945080       0.60953947
Li       3.91217753      12.01304689      10.55288826      -0.18865514      -0.53120097      -0.07770786
Li       8.91778988      11.97983822       4.02218766      -0.19286880       1.10895406      -0.13847722
Li       1.03152773       1.97510853       0.83151916       0.54251281       0.46862784       0.26538419
Li       5.70136487       8.66588901       0.93115843      -0.50655387      -0.19889506      -0.34985822
Li       8.42358751       7.30772791      12.06353264       0.56233043       0.35969242      -0.50100386
Li      11.08151746       0.63657380      11.86776682      -0.35101986       0.58265135       0.61289513
Li       5.42096611      10.98724260       2.41548765       0.37782227       0.36293643       0.32656021
Li       7.58380082      11.08889475       8.76544689       0.01573549      -0.68314089      -0.07366457
La       6.78346009       0.01141064      -0.11903154       0.88592337       0.07038120       2.04875996
La       6.66768629      -0.14559395       6.46582895       0.10264428       0.64143084      -2.83994443
La      -0.09461974      -0.10016975       3.10037795      -0.85776023       0.64268260       0.87315573
La       6.72418982       6.48931401       3.31812015      -0.77369632       0.51548478      -1.69827783
La      10.08831558       8.14321187       4.66955562      -0.70227337       0.95908315       1.04192537
La      10.11999572       1.60582233       4.66839866      -0.23570165      -0.60741997       0.95584644
La       8.22783185       2.97762875       8.11212772       1.08855750      -0.24429340      -0.91069020
La      11.51009570       9.71688550       7.90450608       1.06818851      -0.04517756       1.01314362
La       9.80037488       4.48059223      11.19656950       0.07221671       2.06466371       1.43873725
La       9.76741232      11.21868968      11.26641511      -0.75566038      -0.24567439      -0.05475556
La       8.32795215       9.88332083       1.60695666       0.50957501       0.85298350       0.77700613
La      11.90432428       3.09963852       1.61879272      -0.64840647       2.21473336       1.03367199
La      -0.45362512       6.58838746       6.47200004      -0.23564784      -0.58882281       0.83923548
La      -0.08862610       6.68722967       0.00178784      -0.22599725      -1.49667157      -0.15525304
La       6.40933024       6.20266589       9.67031181      -0.06943848       2.13525829       0.13742221
La      -0.55570443      -0.21410894       9.81689129       1.00861926      -1.03337191      -3.10644959
La       3.05355102       1.27232035      11.20713633      -0.97260719       1.37072407       0.09249327
La       2.71226864       8.08189012      11.38417147       1.09125415      -1.24646616      -0.91441540
La       1.44263811       9.97900180       1.50584097       1.70399552       0.15703755       1.03726561
La       4.89358476       3.17114314       1.60371376       1.47288177       2.13424376       0.92763295
La       3.10939327      11.35409098       4.98155002       0.71050054      -0.37644316      -1.60077348
La       3.16478158       4.68774430       4.95758236       0.16421019       0.79352692      -1.79374113
La       1.51565784       3.03270116       8.11094301      -0.53463328       0.01377431       1.10291579
La       4.62679195       9.85856802       8.18366671       0.09672678      -1.82209341      -0.33341961
Zr       9.85043264       6.39379454       7.94134467      -0.19486392       0.72414646       3.27749119
Zr       9.94958585      -0.29673816       8.15704569       1.66422323       1.83837332      -4.18511988
Zr       6.24836577       3.01813626      11.27418790       1.41440321       0.44356673       3.08362555
Zr       6.65083004       3.36880621       4.91265750       0.38933175      -4.24349001      -1.74715011