192
Lattice="13.08499921885294 -2.3111934687772923e-18 5.810312312664388e-17 0.4217756746261672 12.586314864137545 -4.238894589200627e-17 0.418991737689972 0.574966690914264 12.078662079099164" Properties=species:S:1:pos:R:3:forces:R:3 energy=-1391.069256613304 stress="-0.06202357525827141 0.025150649980155676 0.020486591896523892 0.025150649980155676 -0.14069861247413323 0.037233641264179905 0.020486591896523892 0.037233641264179905 -0.14217730759263475" pbc="T T T"
Li       6.77928057       0.49410358       8.99624456       0.27702805      -0.35871430       1.39925084
Li       6.51923450       0.22502996       3.11596835       0.99776208      -0.24900127      -0.55710960
Li       6.95810108       6.41789303       5.98807539       0.58576911       1.10390646       0.46605432
Li       0.37019155       0.30919438       5.95746609      -0.44205887       0.65619018       1.08396486
Li       8.91747771       2.41045099      -0.08939735       0.80547552      -0.96641162      -0.52955294
Li       4.52796814       2.52811949       5.91144837       0.05547281      -0.05089447       0.69495528
Li       2.67776902       2.32466890       3.10708559      -1.31747363       1.46959881      -0.27256898
Li      11.18951865       2.60814638       8.98076246      -0.37960826       0.95209063       0.99194626
Li       4.52058266       4.35542659       8.97570058       0.14998912      -0.00343147      -0.28253715
Li       9.03984281       4.21540828       3.04409007       1.12795722      -0.07520705       0.04620052
Li      11.03879062       4.25030755       6.09964901      -0.01072740      -0.05896087      -0.03214094
Li       9.46147515      10.65041324       6.00488420      -0.07531333      -1.86575297       0.15511510
Li       4.52429788       1.24952375       3.85701688      -0.03184571      -1.13959601       0.48639989
Li       8.93286305       1.42674525       9.87234527       0.12911785      -0.44091200       0.21679085
Li       1.63716829      11.02384539       6.92891316       0.40759436      -0.16583759      -1.21618426
Li       6.01596752       4.67077277       6.93590661      -0.66793112      -0.56421784      -0.42896031
Li       8.98912394       5.63095034       5.19311568       0.67043103       0.00591277       0.29036470
Li      11.55901075      11.84712429       5.30622436       0.38357828      -0.23805666      -1.11535399
Li       5.80092949       2.30390734       8.09311211      -0.03989257       0.10695478       0.35322876
Li       7.90749954       2.19256888       2.08514823      -0.47708918       0.03683175       0.13509519
Li      11.40176666       5.45339793       3.77718083      -0.81836893      -0.38381997       0.31518409
Li       2.62806202       5.91258788       9.80214184       0.04671785      -0.62047040       0.11027988
Li       8.09503383       8.75909872       6.90829287      -0.08649834      -0.12280533      -0.19344186
Li      12.43313506       2.26047604       6.92751511       0.53548137       0.24417373      -0.43502852
Li       2.38230714       1.19397026       5.27370920      -0.22938102       0.42613461       0.35478751
Li       4.95282182       7.51067230       5.25221818       0.12881549      -0.67123609      -0.44995591
Li      12.43048530       4.67523411       8.21648411      -0.47150912      -0.35951339       0.18562937
Li       1.15639686       4.39086210       2.05139606       0.62735756      -0.66252637       0.59218787
Li       0.44506964       6.33211190       3.11228112      -0.74153742       1.88452817      -0.97263423
Li       0.44947631       6.64247385       9.18729503       1.03788522       2.47895476      -2.74069655
Li      -0.07591059       0.01608612       0.02137725       0.93670832      -0.12965370       0.41923001
Li       6.87465220       6.24341921      -0.07591246      -0.42087903       0.83977666       0.70587759
Li       2.91046924       8.68431943       5.96207379      -0.52935265       1.34715972      -0.57743801
Li      11.09577662       8.49348789      -0.05963453      -0.42430973       0.65682772       0.26717587
Li       9.58048298       8.99003962       9.23469382      -0.28582422       0.18674026      -0.14862611
Li       4.72254849       8.76839044       3.02154334      -0.82693891      -0.38048229       0.13567009
Li      11.22535722      10.41814577       2.88039809      -0.17590258       0.21774777      -0.35162607
Li       3.13834559      10.76632927       9.00364382      -0.38960997      -0.48551005       1.12357759
Li       4.68745374      10.25276405      -0.06446121      -0.77587194       0.35427891      -0.10090743
Li       2.48424094       3.96433891       0.10801060       0.55161457       0.18537677      -0.25686496
Li      11.62783955       7.86702901       9.83115129      -0.33518918      -1.75679990       0.07979173
Li       2.55122585       7.62778355       3.93097086       0.83974510      -3.47843024      -0.44888581
Li       7.70247539       4.24503203       0.83753416       0.18014193       0.88164555       0.02195244
Li      12.56803705      10.60499261       0.81850044      -1.18480453       0.73561604      -0.21426235
Li       2.84795729      12.14755208      11.20806577       0.62796513       0.61614608       1.02994761
Li       4.92269255       5.72544192      11.19759306       0.33309299       0.94261023      -0.06938733
Li      12.38725683       8.33632696       2.04823414       0.01787948       0.37740884       1.16684241
Li       1.80577847       8.74908978       8.18240640      -2.43212427      -0.05146142      -0.20545797
Li       5.24304175      12.07059077       9.79418427      -0.06115344       0.45733452       0.96681173
Li       9.08468032      11.74436413       3.77687024       0.68966936       0.04423058       0.00420535
Li       1.16432712       2.24118211       0.71954997       0.90681805      -3.98449343       2.15713250
Li       5.77558554       8.33970402       0.97532782       0.73719330      -0.29200782      -0.74740815
Li       9.31289622       7.73444596      11.27598373      -0.50631506       0.83850872       0.16051851
Li      11.47557401       1.54949558      11.41965753      -0.72144472      -0.81484671      -0.11825394
Li       6.00337964      10.65341356       2.21314359      -0.18693867       0.62695790      -0.82594435
Li       8.15507095      10.86958701       8.29086514       0.32187204       1.08746671      -0.44319875
La       6.55990379       0.17182361       0.00340245       0.33862350      -3.06223827      -0.51206637
La       6.74967456       0.17193466       5.93568922      -0.17098721       1.23774341       2.31844739
La       0.05194191       0.11770364       3.18499999      -0.74347355       1.80537922      -4.71761720
La       6.87767423       6.35512138       3.19709673      -0.11955480       1.62005693      -2.72449293
La      10.26288310       8.11223257       4.33155739      -0.41472239       1.57164713       2.75621311
La      10.10252152       1.73481517       4.67455234       0.02607820       0.94126818      -4.86306611
La       8.55222951       3.38591777       7.42788471      -1.85052736       1.53897651       2.23482812
La      11.95832946       9.87857490       7.63422239      -0.53876278      -1.33141853      -2.92197366
La      10.17814910       5.18660056      10.65360501       0.46526888      -2.26167953      -0.87644225
La      10.62300134      11.36450774      10.50453213      -1.67310284       3.04047939       1.98169967
La       8.57730638       9.53584022       1.37592124       0.07485989       0.61695262      -0.28550073
La      11.53273659       3.34247894       1.44744837      -0.57380231      -3.84965523       1.15044399
La       0.36213421       6.59859880       6.06843622      -0.94563581       0.69501449       0.21091684
La       0.16472860       6.14705828      -0.07976874       0.08611508       2.11628649       1.75160977
La       7.05076218       6.56301227       8.94884719       0.07997130       1.00664426       0.77851971
La       0.22782431       0.26176213       9.10129629       1.28602405       3.43152328      -0.79895845
La       3.59801226       2.15576217      10.66651856       2.83140431      -4.00583331      -2.19777712
La       4.00514623       8.29841869      10.66114430       0.75281402       2.49405160      -2.07338324
La       1.96849128       9.45114843       1.55343606       0.08244080       1.39864221      -1.12648654
La       4.87784393       3.28189607       1.58109334       4.70507275      -1.79138395      -1.71731757
La       3.84527906      11.15733746       4.37303674      -0.88202886       0.46569188       2.00479538
La       3.50478120       4.79674089       4.42786614       1.04972893       1.69382952       1.25572875
La       1.97842522       3.58352170       7.50295248       0.25912008      -2.18916495       0.28212297
La       5.27587266       9.77432157       7.52261218       3.57046620      -1.68769384       0.51889329
Zr      10.30808681       6.66225535       7.53474764      -0.86405074       0.39121538      -0.20698030
Zr      10.15454152       0.42619720       7.38837149      -2.67557655      -5.36918943       5.30143813
Zr       6.85399177       3.67931400      10.68129440       2.79988222       1.48434733      -6.21740196
Zr       6.84097810       3.27463262       4.38258379      -2.73039185       1.11523041       9.47616489
Zr      10.12600378       6.43568407       1.50506515      -2.39419591       0.57201967       2.11527588
Zr       3.71604054       6.61286097       7.40311129       2.60382351       0.37048047       6.45794303
Zr       6.96828328       9.59493873       4.47388078       1.73918194       2.57291915       3.01185780
Zr       0.29270433       3.49136535       4.42276503      -3.84492906      -9.54692773       1.54444859
Zr       3.33143447       0.05124448       1.60392173      -1.49012168      -1.05321316      -2.95005185
Zr       3.53048531       6.43992046       1.40615458       1.25292973      -2.89257230       6.02663944
Zr       0.49505881       9.75501053       4.56696524      -1.55967908      -0.72939528      -1.29790538
Zr       0.79403706       9.97156503      10.50021937       1.39226644      -1.88570187       2.13491446
Zr       3.60724984       0.18005929       7.56173203      -0.57349827       6.89264128       2.16077678
Zr       9.73217253       0.12785514       1.52869825       3.81079182      -2.92826730       0.13880977
Zr       0.58681621       3.60653232      10.67383078      -3.89856521      -0.13066076      -3.08490031
Zr       7.14136872       9.92453272      10.43449018      -0.23617656       4.16420486       6.88778558
O       10.95043568       6.03658689       5.71478456       0.60333484       0.57421038      -0.71187463
O        9.79466021      12.26861623       5.62481432       0.05147761       2.19988370       1.23009488
O        6.40230008       4.28477800       8.76127412       0.13893816       0.07703324      -1.38582827
O        7.19742463       3.89034947       2.80693564       2.10626794       3.31227462      -8.93577081
O        2.63703725       0.69622293       3.51231750       1.55918713      -1.58308175      -1.41028764
O       10.97044664       0.89006898       9.56021152       0.04100008      -0.58701438      -2.30562887
O        7.09777670       2.60906241       0.22037403       1.79379063      -1.67986138       6.51955910
O        6.52519282       2.64152386       6.33577663      -1.63487101       0.63324574       1.22692441
O       11.04919386       7.20665432      11.86433533       3.12363857       1.43354780      -7.37066739
O        9.47809950       0.98872783      11.84810989      -1.08270638       1.36649426      -2.45187816
O       13.03016938       2.94996221       8.65394170       0.27835343      -0.37210824       1.54385359
O        0.55127998       2.47836784       2.54163129       1.30782932       1.75257141       1.72067025
O        9.56246313       6.08881225       3.27613553      -1.85173408      -1.68954923       5.05922555
O        4.50614749       6.22476260       9.40581541      -0.27576854       0.22467177       0.43054044
O        0.59383622       3.70759397       0.46860989       0.42907685       4.05427702      -2.14528584
O       12.91562698       4.05335042       6.41247582       0.24006003       0.95367559      -0.98465248
O        1.60550518       1.19158732       7.04173220       0.06742831      -1.56856722       0.76824505
O        5.79061496       7.28161905       7.08337312      -1.30774663       0.57728872      -0.15579748
O        7.49973721       1.57646591       4.24894339       2.21257305      -5.17535117      -2.77708255
O        6.28743380       1.83512238      10.28295186      -1.01255822      -0.64260661      -1.29960251
O       11.87776900       5.63596979       1.79364734       4.30152244      -0.52049574       2.07319719
O        1.76271729       6.13486601       7.85289985      -0.20361357      -0.47956206       1.25749263
O        6.17055799       5.21553915       4.95727291      -0.96860336       0.20467493       0.36663018
O        1.40135301      11.67090209       4.90986565       0.46978417      -2.93517392       1.32887524
O        8.34259256       5.83236561       6.99330425       0.19910633       0.90407204       0.95527167
O       12.51300044      12.15931704       7.19588307      -1.03632764       1.35167596      -0.98404114
O        0.96419297       5.08705102       4.13987866       2.87527965       6.98797888      -1.90170471
O        6.22348234      11.59510566       4.22580349      -0.47345174      -0.49188949      -1.41136330
O       12.31008220       7.49624217       7.96955896      -0.88742506      -1.46656984       0.09886045
O        8.01454177       1.07402395       8.01607331       3.32232018       0.35762524      -1.60290663
O       12.64021880       1.46305105       4.89190490      -1.14166630       0.34586042       1.74529869
O        7.71713663       7.89758135       5.00548665       0.15591731      -2.74383214       0.49155416
O       10.46620123       8.46050903       2.12774700       1.30365680      -1.39636016      -0.69231264
O        9.65140257       1.92445823       2.14677872      -1.25475765       2.99463273       1.42449384
O        8.79844512       3.86337655       5.16365835      -0.14340171      -1.29973974      -1.18529950
O        5.14682614       4.05839737      11.38639907      -3.24514896       0.19643826       0.13706206
O        9.59567172       4.38475328       1.00401438      -1.39816006       0.51011139      -0.19667108
O        4.03451462       4.77195320       6.99706829       0.54224849      -2.48170583      -0.95884358
O       11.67736237       9.53869164       9.76272540       1.95659569      -0.15349813       2.08822985
O        9.02855167       3.18733659      10.05887945      -0.89625569       0.96301559      -0.63261550
O       10.49534278       4.71996194       8.18501291       1.35415856      -0.00882726       0.02413428
O        9.99169801      11.03952391       8.32329737       0.42606364       0.66061323      -1.64309648
O        2.20608168       3.05179611       5.12154060       0.61527997       0.00525523      -0.15065630
O        4.97248677       9.25076887       5.02883900      -0.03539892       0.13230758       0.83590662
O        9.89639919       8.61105052       6.84076807       0.22658006      -1.00458012       0.71213634
O       10.33357272       2.17063806       6.83316395       2.78612720       2.65129271       0.10541364
O       11.33272341       3.49603670       3.89104486       0.38191119       2.09797982      -0.12409411
O        8.85531333      10.01554710       3.83101977       0.35083322      -0.40014336       0.37172628
O        4.87277635      12.60100156      11.67040204      -0.14179528       1.29627167       1.84840936
O        3.22472946       6.56418285      11.80759579      -2.54279425      -3.41026833      -2.79405320
O       13.08310161      10.22230910       2.48786601       0.30212391       0.16484877       3.21769235
O        1.11225179      10.63794066       8.54955400       0.71706355      -1.18973261       1.33051378
O        9.71321515       7.02781843       9.51539200      -0.13375887       2.02198000      -1.27265477
O        4.34802969       6.90365381       3.33606807       0.05153044      -0.38292275       0.42825093
O        0.98708942       8.97610417       6.30218962       0.92446108       0.09377029       1.19649296
O       12.84069659       8.87623974       0.47393185       0.59120544      -1.82685522      -3.25216767
O        4.19379672       0.71164221       5.76457053       0.52379261       0.38680684      -1.97101721
O        3.14519123       6.94828748       5.72840322      -2.15448167       1.21494369      -5.39823109
O        6.59805472       8.93361835       2.75492651      -1.96549056      -1.61014936      -3.26136900
O        7.52301730       9.19948136       8.88878647       2.35520259      -3.25921573      -8.41593094
O        3.33817054      12.50937745       9.55345763      -0.56323546       0.06139156      -2.17115469
O       11.14177622      12.21626245       3.32419683      -0.69545029       0.44877153       1.46085925
O        7.46117678      10.57057961       6.40041955       0.18783256      -1.86078781       0.25576323
O        6.50336260      10.08190857       0.22844245      -0.97305027       0.36294657       2.91832491
O        8.28237405       6.92129162       1.11787909      -2.99549140       0.63154356      -0.64565694
O       11.93289469       0.76360489       1.18777388      -1.49151332       0.23770948      -0.90542862
O        1.21149494       8.08758197      10.30100036       0.94170144      -2.43468889      -1.55264469
O       12.62600102       7.90509427       4.14699110       1.18658738      -1.25472461      -0.52431118
O        6.00516213      12.37417930       7.93103520      -1.74529616      -1.17668572       0.59992839
O        8.37925681      11.84324638       1.89351879      -2.07779280       1.20550261       1.54967362
O       13.17341783      11.63741421      10.93529081      -1.32953525       3.98889333       1.30386816
O        7.86918992       5.60004858      10.91843611      -0.30771104      -0.93894784       0.23981858
O        1.80344973      11.99675455       1.10668094       1.04473687       0.28059414       0.12342211
O        5.48182679       5.78094743       0.99435439      -0.62087329      -1.01577452       0.88550686
O        8.03013536      11.85166044      10.17888882      -0.39545867      -0.05741890      -0.43469761
O       13.05001414       5.55404112      10.19782761      -1.13077851      -1.96683716       1.14425319
O        5.29302831       0.70888999       1.94105278      -0.57376648       0.58595451       0.71850611
O        1.57355988       7.21700353       1.90595405       0.09578463      -2.22358128       0.48199627
O        6.57340617       8.12310656      10.98601685      -1.22659088      -1.38373663       0.36901133
O        1.26966014       1.84586141      10.99375973      -0.36112017      -2.26458541       0.75007435
O        3.88231143       2.20414299       8.23506132       0.60585687       0.91374956      -0.21683740
O        3.41616109       8.57338785       8.32734914       1.46783217       0.16015463      -0.80627095
O        2.71334748      10.45299723      11.30631786      -1.39111475      -2.65203327      -1.22109103
O       11.49396103      10.13160454       5.23981224       1.87372841      -0.96510587      -0.45648405
O        3.68830608      11.05187152       6.84208024      -2.99874126      -2.78803909      -0.83056322
O       10.61737853      10.83237766       0.83169694       0.63361469      -1.27749069      -0.16521230
O        4.75762150       2.97640364       3.83170423       0.59760921      -0.29780450       1.28465304
O        2.41261159       9.14726116       3.92477867      -1.01498642       3.82863668       0.75422522
O        3.98403407      10.65808380       2.19049855       1.73070740      -0.21668779      -0.24827273
O        3.26149495       4.36444410       2.13378107      -4.61524716       2.06443526       0.33420011
O        9.31113822       9.68772368      11.19620105      -0.59758023      -1.99785823      -0.59779527
O       11.53009359       3.23205391      11.22884839       1.74064896       2.00068989      -0.12732761
O        3.14175678       1.91089914       0.76194428      -1.36148473       1.09812778       1.79656587
O        3.94956770       8.11406713       0.86599438       1.47592060       5.03556388      -1.15056223
O        5.11959275      10.29727608       9.96947614       0.51946082      -0.60335615      -0.96440749
O        2.49850115       3.85494231      10.07776556      -0.62332808       4.21750300      -1.01499650
192
Lattice="13.05307809 0.0 -0.0 -0.09415883 13.29514273 -0.0 0.30386129 0.151404 12.94772265" Properties=species:S:1:pos:R:3:forces:R:3 Time=14690.0 energy=-1402.0040343022708 virial="-2.68630157 8.96528575 -8.55502588 8.96528575 -14.00021548 -14.2694525 -8.55502588 -14.2694525 1.53826121" stress="0.0011954660469496094 -0.0039899300900138384 0.00380733985989156 -0.0039899300900138384 0.006230580829757846 0.006350496895336393 0.00380733985989156 0.006350496895336393 -0.0006846550170215153" pbc="T T T"
Li       8.80063435      10.58446797       7.23539678       0.40550810      -0.25219259      -0.05276523
Li       5.01774022       9.65130417       1.49303370      -0.45044899      -0.03042147       0.44278240
Li       7.28402352       7.88109258       7.21817038       0.76284874       0.48340977       0.10900363
Li       0.69209592      12.40402805       6.93436895       0.00603136       0.13832002       0.32417525
Li       9.09057049       2.89786022      12.54292228       0.74768015      -0.94586987      -0.10073705
Li       5.25158368       3.88294475       7.90034231      -0.61400739      -0.86843087      -0.57685132
Li       4.61455821       2.26059606       6.27746518      -0.75926107      -0.66084245      -0.26635338
Li      10.78041744       2.60683374       9.91010677      -0.48980666      -0.80478016       0.20447926
Li       4.05530449       4.45596747      10.02940350      -0.24510819       0.75643030      -0.63905981
Li       9.24692522       4.64452061       3.75621228       0.16459921       0.13892922       0.21546686
Li      11.49591331       6.11209744       4.17005717      -0.24837148      -1.19173606      -0.39488227
Li       9.87753302      11.89206188       4.85641445      -0.14653950      -0.58808455       0.80023206
Li       5.32308743       0.85490824       4.11284284      -0.18600727       0.23570342      -0.54682278
Li       6.80265929      13.20730024       9.62403234      -2.64357543       0.56541854       1.10607256
Li       1.51984344      10.18674012       7.92465737       0.60404472      -0.41800966      -0.42700879
Li       8.39602683       6.27034661       5.40699684      -0.13340035      -0.65161383       1.14038194
Li      10.57853491       4.71448191       6.12712632       0.17197730      -1.24683809       0.31163236
Li      11.72214884      12.95095184       5.94055881      -0.16719329      -0.30447482      -0.00535388
Li       5.96812160       6.37490601       6.58046951       0.95060633      -0.14107936       1.14007164
Li       5.52194488      11.93050610       2.28463375      -0.17424768      -0.13151542       0.92501392
Li       0.09591655       6.81379865       3.09879320      -0.67791761      -0.34350365       0.48760485
Li       2.32893116       4.23877974      12.10702958       0.69312320       0.37141025       2.06926584
Li       7.81770959      11.60323907       9.02743852       0.29849005      -0.93763386      -1.06501457
Li      12.53667693       1.51403723       7.21663746       0.10875119      -0.32156282      -0.17842467
Li       1.92689336       1.11944514       5.50632104      -0.25212361       0.02216446      -0.65621135
Li       4.79799849       8.00743101       5.68540490       0.36896757      -1.66784969      -0.27547067
Li      11.74793332       3.46209017       8.19509175      -0.48292480       1.19482510      -0.32565156
Li       2.62954494       2.65766419       3.49024031      -0.13800988      -0.81758501       0.31379336
Li      11.91910048       8.79732241       2.27091040       0.45299715      -0.03699664       0.29842966
Li      12.45191856       6.21181343       9.38310576       1.18747598      -1.52465762       0.92761320
Li      11.00681426       1.03330132      11.74617044       0.40801764       1.27058492       2.50917572
Li       8.16935267       3.43586263       1.72547267      -0.01619726       0.60234638       0.01283961
Li       2.82538928       9.15118239       6.17655310      -0.98223376      -0.18903171      -0.12370440
Li      10.57070766       9.07164665       0.26892952      -0.02607817       0.39015854      -0.54289981
Li       9.00389320       7.98108661      11.98234815       0.16785400       0.08597868       0.10536715
Li       4.14070745       9.04111613       3.48892435      -0.43992885       0.37999117      -0.12694022
Li      10.76936197      11.03741809       2.68821734      -0.41521243      -0.35224407       0.09296831
Li       1.16065481       8.15361067       9.46002321      -0.27118167       0.30050386      -2.32312450
Li       2.56774454      10.90232495       9.70730081      -0.18428522       0.39680325       0.69903294
Li       1.24098043       4.42380652       2.66357053      -1.09906756      -0.30664616      -0.73823212
Li      11.33608264       7.99206063      10.78423451      -0.56058970       0.14612912      -0.67239708
Li       1.87591625       7.73534539       4.21471529       0.23470422       0.77805570      -0.03845474
Li       7.47582142       1.06333568       2.56932359      -0.99980749       0.53915184       0.66061639
Li       2.14920244      12.19979288      12.27926650      -0.09195743       0.83282685      -0.13147867
Li      12.77002338       0.18463023       0.12782419       2.32739811      -0.36222683      -1.99165464
Li       4.83947606       5.68197736      12.10290626      -0.62406446      -0.29435713      -0.01250464
Li      12.20507205      11.29427204       0.86348542      -0.15856101       0.27477786      -0.43439406
Li       1.81292871       5.76465395      10.61575909      -0.38643468       1.34305034      -0.68288322
Li       4.72069544      12.23283863      10.71496157       0.02289225       0.20952668      -0.18498716
Li       7.46744883      12.43155058       4.01938003       1.20977061       0.52446307      -1.27433053
Li       1.13688767       2.46375199       1.11277854       0.46339553      -0.02325543      -0.41763126
Li       6.11308532       7.09105707       0.32857987       0.13139956       0.64136978       0.27193415
Li       7.02588641       5.21389354       0.25434494       0.47495357      -0.58760235       0.94140806
Li       8.77704684       0.82642894      10.62154338       0.12949164       0.89954349       0.07682538
Li       4.58000606      11.10780679      12.89082892      -1.19109904       0.27634800      -0.62390825
Li       9.02215019       9.29079611       9.39458011      -0.54946851      -0.38055836      -0.28440290
La       6.49987923      13.26243199       0.06977263      -2.03651046      -1.17621439      -1.65260184
La       6.88697864       0.35392643       6.58804207      -1.34186936      -1.82822909       0.66741945
La      12.72892029       0.17519726       3.10235650       4.05440876       0.71364868       0.39838716
La       6.39362658       6.71505075       3.21398846       0.35693234       0.47473962      -0.25425319
La      10.08172535       8.35341223       4.79707095      -0.13903923       2.49106035       1.53237564
La       9.85708653       1.87045797       4.69938588       0.06460379      -0.21347237       0.91433016
La       8.23463675       3.57422263       7.92533980       0.93745727       0.98026454       1.15025744
La      11.60953895      10.32163468       8.19203692       0.09531075      -0.64702259      -0.03610690
La       9.75766848       5.09306649      11.04369390       2.66286517       0.64162035       0.52797128
La       9.86582586      11.50839751      11.42678955       0.73608587       1.23468639      -0.41345534
La       7.86911751       9.87963845       1.79717890       1.31667344       0.29199707      -1.42086999
La      11.18891683       3.23520119       1.40477061       2.66073834       0.99579736      -0.89971067
La      13.07130357       6.94829608       6.59107875       1.00314856      -0.36169771       0.20211735
La      12.88879986       6.77210735       0.04530614       0.47770171      -2.06714904      -0.91815772
La       6.49136446       6.90366820       9.86777874       0.49258535      -1.04848805      -1.67694633
La       0.52088792      13.39624587       9.91368217      -3.11414359      -0.54809310       0.30153222
La       3.72528132       1.63180719      11.12988133       0.42505210       0.83222815       1.77275990
La       3.43311682       8.47086736      11.37155241       0.28153290      -0.17921686       1.11821005
La       1.65732983       9.85753915       1.66883856       1.63901274       0.91984166      -0.03376532
La       4.78316768       3.13628884       1.39284725       0.03260805       0.75266358       0.57466738
La       3.41464484      11.74389304       4.95076169       0.03842576       0.07902849      -1.14193917
La       3.42650307       5.20295403       4.96682779      -0.68883570      -2.05165499       0.02238318
La       1.94472735       3.14165199       8.00436602      -0.24122344       1.34162604      -0.89935887
La       4.99386771      10.13954318       8.20712743       1.58649677       0.63921659       0.39484767
Zr      10.00257231       7.01209665       8.19721380      -0.81577916      -1.57405144      -1.62308781
Zr      10.03387646       0.42246831       8.18890978       1.72165867      -1.72354962       0.82590418
Zr       6.84425411       3.44631261      11.05533612      -1.73010238      -1.55938305       0.31129394
Zr       6.69456276       3.55039197       4.72803648      -1.81834680      -2.17170305       2.21139019