192
Lattice="13.402263713234293 -2.9390190287879013e-21 -6.012594017068654e-18 -0.0077204382835417695 12.975617149968986 -1.001304562431518e-16 0.17529390743917916 -0.6050493252710762 12.445154900688236" Properties=species:S:1:pos:R:3:forces:R:3 energy=-1408.0141183168043 stress="0.012453844257262725 -0.001024472094203646 0.006615191135170726 -0.001024472094203646 -0.019466676682517694 -0.02549565117030561 0.006615191135170726 -0.02549565117030561 -0.021293818650584686" pbc="T T T"
Li       6.85154743      -0.42553697       9.35276247       0.88103465      -1.34388252      -0.39470083
Li       6.59958614      -0.23533180       3.12449466       0.63626115       1.03255347      -0.51580882
Li       6.69798464       6.22601663       6.39439619       1.89859627      -0.50276215      -2.41004225
Li       0.19850479      -0.41280063       6.29961744      -0.81795875       0.74279774      -0.66699232
Li       9.16498958       2.43150085       0.16931799       0.49978368       0.08739044      -0.76301292
Li       4.44988344       2.06008178       6.05473808      -0.49463842       0.01097687       0.41932071
Li       2.49161658       2.06240998       3.23902853      -0.27412583       1.00152241      -0.66579988
Li      11.01216286       1.74415087       9.30178273       0.72439053       0.66910968       0.44221390
Li       4.54123107       3.71658597       9.45402846      -0.95930454      -0.19467111      -0.11778755
Li       9.18524953       4.09166903       3.06394917      -1.18749727      -1.78566015       0.04041509
Li      11.05727904       3.96833094       6.29190260       0.30452888      -0.33576540       0.25557581
Li       9.31091624      10.33840122       6.18873705      -0.59697591      -0.67694267       0.20537229
Li       4.42459995       0.77627148       4.02736969       0.72875770       0.30858363      -0.89435517
Li       9.01702722       0.37604946      10.16371174       0.38164216       0.14625458      -0.17582257
Li       1.08376145      10.68245859       7.15750075       0.68482336      -0.58379091      -0.72632744
Li       5.88453004       4.12995594       7.10124178      -0.86925504       0.32543928      -0.17181434
Li       8.88489933       5.35934675       5.31249476      -0.82173585      -1.05686421       0.56695378
Li      11.35467767      11.73407084       5.20735418       0.25751836      -0.20623875       0.81769592
Li       5.79690484       1.56641403       8.58888437      -0.80587416       0.36416975      -0.04361890
Li       7.82821396       1.97314425       2.08987610      -0.20735279       0.46402468       1.30161681
Li      11.19361284       5.22398213       4.01579385      -0.40081532       0.26298368      -0.03963857
Li       2.43398996       5.08113439      10.14454486      -1.33891275      -1.26479887      -0.36876036
Li       7.99289865       8.33871012       7.17311687      -0.32751334       0.20471024      -1.13992994
Li      12.34343001       1.68882848       6.97807677       0.88792909       0.53870610       0.56630063
Li       2.27883710       0.93169359       5.31218403      -0.08252967      -1.11344979       0.60626444
Li       4.48162356       7.22323790       5.23849395       0.74042502       0.13384755       0.73472373
Li      12.39425270       4.05205376       8.45563674       0.82802755      -0.51936950       0.51479867
Li       1.12026975       4.25989198       2.43282499       0.60893012       0.22970438      -1.08053263
Li       0.06956402       6.18062568       3.21097985      -0.26328085       0.72137837      -1.07099515
Li       0.06428775       6.08907288       9.34149234       0.13358926      -0.99995002       0.07271085
Li      -0.01448826       0.12425230       0.11756632       0.31482956      -0.21064357      -1.17107901
Li       6.55872750       6.44239207       0.03690405       0.42034310      -0.17504481      -0.40984626
Li       2.61924977       8.40220553       6.23099160      -0.49200127       1.47927509       0.16787141
Li      10.94844959       8.95938810      -0.00218791       0.15071033      -0.65846728      -0.36831428
Li       9.14844008       8.26826120       9.25060521       0.10137412       1.50271069      -0.06323259
Li       4.31870738       8.58744948       3.16546994       0.48660730       0.22579852       0.36867430
Li      10.95702827      10.52322905       3.20879569       0.44141464      -0.24400666       0.17817990
Li       2.40569434      10.17365298       9.22432939       0.31155106      -0.66415134       0.33157734
Li       4.29342567      10.59157256      -0.04317737       0.68423429       0.46560281      -0.17546246
Li       2.27748196       4.15050826       0.05900498       1.03596230       0.31024163      -0.24575955
Li      11.21231595       6.96391507      10.16227115       1.29967728       0.91350494       0.51165134
Li       2.25084878       7.28344357       4.01345269       0.45434899       0.08955561      -0.01903081
Li       7.67120173       4.25913068       0.73264189       1.75362893       1.80206727       1.58504826
Li      12.35896378      10.89742030       0.89846487       0.23334623       0.21915859       0.16323288
Li       2.47322219      11.42348256      11.53079829      -0.71195977      -0.84835633      -0.12538899
Li       4.59027853       4.86461715      11.48951757      -0.00898059      -0.25322489       0.00500958
Li      12.43147721       8.48514963       2.18957519      -0.50050486       0.17962624      -0.11217875
Li       1.05981834       8.12927122       8.57327489       0.93105104      -0.72997526      -0.06695349
Li       4.57464824      11.44912178      10.15050365       0.85782827      -0.76905350       0.32616509
Li       9.09820733      11.72264714       3.98219492      -0.55606818       0.45466158       0.66619550
Li       1.14200118       2.12485092       0.69190433       0.03034546       0.06447200       1.09014862
Li       5.69852452       8.46382884       0.82083329       0.15443703       0.50586157       0.40991735
Li       8.99331177       6.83777612      11.60803377      -0.14386778       0.77377301       0.20191291
Li      11.44040537       0.42096892      11.70642752      -0.03810907       0.70650600      -0.99255782
Li       5.70325095      10.82655179       2.29176560      -0.36139968      -0.23340557      -0.13116395
Li       7.79023746      10.35894201       8.35789532       0.76055522       1.28981555       0.19246514
La       6.76847557       0.03208546      -0.02665543      -0.97558461      -1.22015461      -0.88308378
La       6.70903997      -0.24842078       6.15777163       0.91502585      -2.19875284      -0.00107747
La       0.14950941      -0.20461130       3.03974136      -1.42517153       0.94028873       1.30660304
La       6.81817552       6.45345945       2.96959982      -0.63016182      -1.64438485       2.46998261
La      10.17846342       7.74010943       4.67168292      -1.49414498       1.86139853       1.32597037
La      10.12540830       1.56118637       4.70709875       0.51876469      -0.79948347      -0.59140241
La       8.42812455       2.73677187       7.82629238       1.10915774       0.66437743       0.53304434
La      11.96520354       9.43576872       7.79212545      -2.36553333      -0.13083205      -0.29820247
La      10.14562086       4.33329364      10.71989807       1.61645198      -2.24786405       0.79485108
La      10.30605388      10.66492117      10.93350315      -1.85368046       1.61455097      -2.58796228
La       8.60202515       9.73325741       1.57996063      -2.20649953      -0.81346164      -0.64750643
La      11.58612867       3.31548022       1.56406851       1.69676406      -2.31202464      -1.53750753
La       0.09631087       6.24880635       6.05379605       1.10266701      -1.13775281       4.11454783
La       0.13583845       6.59136237       0.02390534      -0.89671722      -1.76070207      -2.63439266
La       6.79846179       6.18956602       9.35625019       0.34070599      -2.19520161      -1.70592557
La       0.20160070      -0.56310621       9.43489525      -1.32340590       2.53490732      -0.43979978
La       3.42535806       0.97666802      10.95899164      -0.01278107       2.58054476      -0.62604921
La       3.43688150       7.62608576      11.07247368      -0.06003139       1.02546131      -2.67151170
La       1.86159102       9.56641183       1.56243746      -1.32189721       1.35350088       0.52471901
La       5.11005708       3.21633009       1.43160478      -1.89406010      -0.54906977       2.87570488
La       3.22456208      11.14578563       4.61098683       1.58997503      -0.09890960       0.54259819
La       3.35872591       4.46192065       4.59187841       1.45698297       1.78133095       0.81743828
La       1.97646343       2.83143999       7.68494696      -3.18258547       0.35106360       2.07973138
La       5.18662207       9.29262094       7.78674489      -0.28054162       0.65982241      -1.26019487
Zr      10.27491728       6.14696516       7.84273016      -1.70451900      -0.74014667      -2.60377953
Zr      10.24352147      -0.37259844       7.59736532      -1.26633606      -1.57834446       4.55735615
Zr       6.86070958       2.79219631      11.05467574      -0.23288776      -3.20851575      -4.01279513
Zr       6.74264996       2.90065894       4.77429911      -0.20437198       4.24317396      -2.86903693
Zr      10.16833330       6.38586048       1.49351564      -1.64844498      -0.74669029      -0.76652426
Zr       3.54478432       6.21327881       7.84516906      -2.62909891      -1.92206530      -0.99207229
Zr       6.88259641       9.43421817       4.52865698      -1.50743898       1.85203542       2.32681296
Zr       0.01756702       3.14633811       4.57371534      -0.68021096      -1.82351419       3.41146162
Zr       3.27091546      -0.17526202       1.50137587       1.53611782       2.64337904       0.22839359
Zr       3.40705955       6.47920451       1.45940045       1.39870569      -2.56866496       2.76231834
Zr       0.00023096       9.42884687       4.59599790       1.94375381       2.22256972       1.37681185
Zr       0.06470327       9.24673574      10.97026732       1.34228815      -0.73494274      -1.20479211
Zr       3.60643398      -0.50048590       7.74709989      -0.71517723       2.54792452      -0.57393380
Zr       9.96832259      -0.02766636       1.45083687       2.11621321       0.60703134       1.92520410
Zr       0.19933803       2.64410915      10.92593418      -1.99891705       1.67085574      -4.14198945
Zr       6.77201550       9.05531889      10.94405148       2.14494263       3.61261766      -1.86419420
O       10.83651078       5.79190194       5.87323362       0.57157563       0.02600930      -1.01720393
O        9.42951474      12.12202648       5.88957725       0.25215518       0.71074885      -1.68672947
O        6.27299317       3.68398897       9.01829152       1.26383734      -0.70141080       0.67204339
O        7.11158037       3.88769305       2.82985708      -0.02977599      -0.82442112      -1.00609766
O        2.72091889       0.37657474       3.46194736      -1.27770554      -1.35676980      -0.03395652
O       10.94606587      -0.00396424       9.66929155      -0.19903812      -1.35298313       0.30787431
O        7.28172671       2.60111787       0.47175345      -1.23245407      -0.57068124      -1.72735890
O        6.17005559       2.32383482       6.58796076       1.11365627      -1.08265626       1.30849888
O       10.88861003       6.39341556      11.94705603      -0.10754756      -0.21120930       2.41421261
O        9.56455129      -0.10832004      12.13791833      -0.78366641      -0.13851903      -0.42592848
O       13.06145848       2.15543694       8.97684275       0.00921346      -1.28758439       0.02245565
O        0.49940744       2.56594206       2.75003991       0.34961018      -0.69754271      -0.51438972
O        9.29015288       5.70961565       3.49094917       1.60204699       2.64074498      -1.20326802
O        4.18319233       5.63098273       9.83604056       0.96801276       0.48091001      -1.91586425
O        0.55271642       3.92513590       0.23302280      -0.20530445       1.28184452       2.80956832
O       13.04028231       3.70915399       6.70236292      -0.70749423       0.46852491      -2.66537806
O        1.43727943       0.40552760       7.20914776       1.73578573      -1.37203939       0.74897763
O        5.42747962       6.77408345       7.22265596      -2.25873638       0.97367882       2.79351519
O        7.45182160       1.08298162       4.35229086       0.37634946      -0.72328800      -0.57507102
O        6.24360668       0.76708185      10.40713879      -0.57743698       2.07661016       1.11752859
O       12.02670338       5.53755883       2.03685507      -0.18970729       1.97730575       0.01099726
O        1.36047820       5.40414946       8.33761060       2.79355745       1.09865307      -1.18259834
O        6.06989096       5.02760862       5.12945123      -0.03209142      -1.80964610       0.04928765
O        0.76346937      11.41767756       4.95503556       0.13287060       0.14313244       0.00946486
O        8.18903150       5.40236428       7.17296714       0.49572890       0.32122513       1.77619394
O       12.19286704      11.95195797       7.53201929       1.13229944      -1.20364322      -1.13988130
O        0.91137452       5.06549405       4.27698276      -0.23435935      -0.92337569      -0.82595153
O        6.10231264      11.45344226       4.13615946      -0.11971941      -0.96481748       0.62758049
O       12.11850201       6.64993643       8.30220334      -0.26424835       1.12036052      -0.67254845
O        8.22376449       0.13463160       8.13762349      -0.63498923       1.54537249      -0.29546525
O       12.61520835       1.21538709       5.06339540       0.16937529       0.04479035      -0.34817171
O        7.59006379       7.66847430       5.10866722       0.60427496      -1.03403986      -0.41834702
O       10.36950968       8.23548917       2.37183400       1.25367762       0.16957537      -0.88367419
O        9.65621464       1.96495689       2.17643412       0.14256539      -1.02468501       0.16335881
O        8.77353460       3.31289278       5.18920208      -0.11376425      -0.04140361       1.02283757
O        4.77478281       3.01104597      11.54989137       1.76841854       0.21395289       0.38050271
O        9.77052484       4.43043772       0.75068412      -1.32132550       1.29896712       0.54738014
O        3.65265568       4.17649751       7.01179488       1.68380149       1.11998540       0.20616477
O       11.60591271       8.89694849      10.23395296      -0.76217999      -0.34547084       0.06002920
O        8.97996340       2.25163420      10.26172216      -2.23953891       1.23929436      -0.28481468
O       10.42263013       4.05970282       8.42537117      -0.23943659       1.20300424      -0.67337892
O        9.63688188      10.61670071       8.52119553       1.83897667       0.04597354      -0.23680989
O        1.90849565       2.61145479       5.38758537       0.27652993       0.91236588      -2.12763849
O        4.84601669       9.17270313       5.38781543      -0.21443797      -0.36155524      -0.32367036
O        9.77029777       8.24738650       7.07525167       1.49667110      -1.62971197       0.41844290
O       10.49137003       1.56871145       7.23927422      -0.39006379       0.94993357      -1.19369606
O       11.41685281       3.51339163       3.97682979       0.42088367      -0.57561903       0.24254912
O        8.82322452       9.95366206       4.00760292       0.74438604      -0.60435818      -0.94552368
O        4.27935536      11.91617732      12.02104101      -0.58755813      -0.53311943      -0.02892224
O        2.91726848       5.49540402      11.99225002      -0.77528678       0.11324199       1.43941639
O       13.06837927      10.24074359       2.75233326      -0.68922579      -0.11587320      -1.11292535
O        0.51466169       9.84471429       9.02183449       0.57778527       1.73937483      -0.66251635
O        9.54485170       6.56982253       9.62795014      -1.85920367      -0.37784246       1.27771899
O        4.28831490       6.70306330       3.57894475      -1.74492947       0.38528547      -1.88092693
O        0.61936754       8.84316228       6.48014778      -0.24000164      -0.57418646       0.61882434
O       13.01316908       8.89547795       0.27019138      -0.74834272      -0.01751868       2.23670470
O        4.24992934       0.16285729       5.72164026      -0.21011627      -0.36386098       1.92819805
O        2.61457127       6.68406623       5.91611660       0.49022792      -0.37545622       0.13481270
O        6.27176455       8.88476795       2.60745224       0.39601649       0.10766428       0.24483727
O        7.19438855       8.73058467       8.91814013       0.42042697      -2.06644512      -0.46644019
O        2.68790074      12.14529844       9.69570385       0.29969333      -1.67921246      -0.80573568
O       10.86592447      12.33793314       3.64949630      -0.51963849       0.62781629      -2.84430940
O        7.34192637      10.12234526       6.43353219      -0.52015460       0.28973914       0.78412609
O        6.20681041      10.32476398       0.19549365      -1.06045878       1.11885492       3.87762622
O        7.93961045       7.09291757       1.01095856       2.15973048      -0.09205733       0.28329416
O       12.02284694       0.69762678       0.95227424      -1.89727138      -0.32615402       2.16951483
O        0.72338970       7.34050749      10.37228006       0.86196139       0.67580547       1.56098145
O       12.81486301       7.54616262       4.31025432      -0.81167919      -0.78075683      -1.62054409
O        5.55809539      11.81808533       8.27027628      -2.26800677       0.14891489      -0.59118939
O        8.06052688      12.10113033       1.84795042       0.91132311       0.51161144       0.19696439
O       12.82751301      11.22355898      11.36054819      -0.02148682      -1.08056501      -0.10529571
O        7.60489254       4.54846341      11.23771165       0.38609360       1.91807430       1.03422331
O        1.23946269      12.29823208       1.08255400       1.27357470      -1.06505171       0.36876308
O        5.33897227       5.79229172       1.30884811       0.32895160      -0.62689643      -2.33861197
O        7.50842190      11.13068306      10.57775283       0.03657201       0.13877357       0.33730825
O       12.96092565       4.63175570      10.35702922      -0.62767955       0.32414536       1.68630308
O        5.26028910       0.53938923       1.96034853       0.69450056       0.19389306      -0.32567684
O        1.56274429       7.07826567       1.92134783      -2.08123384       0.74318935       0.68436954
O        6.21544181       7.19546369      11.26994321      -0.93984510      -1.63551288       1.01878256
O        0.92771054       0.83683404      11.50303911       0.49741133      -1.44691376      -0.83790704
O        3.72265902       1.44123999       8.34510405       2.07063057      -0.35032317       0.66064523
O        3.15636720       8.11303349       8.59306123      -0.16324633      -0.36257468      -0.65930026
O        2.07845573       9.51179462      11.42396241       0.78708146       0.65950121       1.15960477
O       11.61706134       9.86907574       5.36206674      -0.83765313      -0.33032937      -0.30219465
O        3.11128092      10.72759504       6.97103146      -0.89825623      -0.89483820       0.96343390
O       10.50544964      10.93730672       0.82359280       0.08329173      -0.16903486       0.73319198
O        4.67596456       2.63617074       4.12541111       0.18266625      -0.26962897      -0.36569185
O        2.21290053       9.28693741       3.92648884      -1.20689867      -1.75548132      -0.63695590
O        3.71940387      11.06214318       2.22188538       0.13709435      -2.52967444      -0.11764765
O        2.97798785       4.51945272       2.12056673       0.06842762      -0.33661840      -0.31037217
O        8.80950012       8.78778301      11.60123402       0.68640732      -0.35764504       0.07802250
O       11.49078375       2.36725937      11.44986557       0.83007551       0.15939625       0.92568917
O        3.02752482       1.74417805       0.90734680      -0.32027937       1.81760860      -0.43367719
O        3.75331909       8.47284055       1.06814217       0.83018855      -0.10783766      -1.10059241
O        4.80981770       9.44300633      10.31587512      -0.16836296       0.40669419      -0.01997412
O        2.19706399       2.97246883      10.14374666       0.44930654       0.12462761       1.10308192
192
Lattice="13.15881396393551 -2.2606581962907995e-17 6.909182237043268e-18 0.16130514336458734 12.885376047417383 -2.428874218456457e-17 -0.0846184975141768 0.414669110619805 13.070628095784198" Properties=species:S:1:pos:R:3:forces:R:3 energy=-1410.5520861074085 stress="0.007980508083351863 0.007227589996077846 -0.003778184529040244 0.007227589996077846 -0.009867876965216233 0.017850666261144434 -0.003778184529040244 0.017850666261144434 0.038166274594784985" pbc="T T T"
Li       6.44227122       0.45457517       9.87029173       0.51815704      -0.96671706      -0.74269992
Li       6.50315796       0.08956380       3.36245985      -0.05765099       0.10182004      -0.89580564
Li       6.64794953       6.82175797       6.62166635      -0.04662725      -0.84282991      -0.47153272
Li      -0.11893117       0.28505263       6.69264090       0.30449909      -0.09874612      -0.75514508
Li       8.90666599       2.28982098      -0.12712420       0.03600326       0.42096641      -0.28219310
Li       4.06687833       2.45004752       6.48756047       0.07111808       0.12416349       0.37781429
Li       2.34240301       2.38959191       3.20254880       0.01815877      -0.04514413      -0.17005527
Li      10.84878409       2.78785787       9.84500550      -0.48725601      -0.55584982       0.05482513
Li       4.15760422       4.33072466       9.83633945       0.13733670       0.23403702       0.17187872
Li       9.06628485       4.35140650       3.28920208      -0.49960939      -0.42372691       0.35352477
Li      10.64791150       4.26801433       6.49003301       0.65898193       0.06841396      -0.36452735
Li       9.01640859      10.79911883       6.34660846      -0.18985640      -0.55009851       0.24846732
Li       4.28124178       1.18123990       4.10479228       0.75279185       0.39146747       0.09452965
Li       8.72788283       1.25665456      10.78646387       0.10206540       0.60532270      -1.04736853
Li       1.24130380      11.13715196       7.40424793      -1.24428348      -0.48334921      -0.02233366
Li       5.58381015       4.71999787       7.52471908      -0.06128520      -0.33685453      -0.39373305
Li       8.69894809       5.41720094       5.69915950      -0.38478185       0.72651678      -0.54104831
Li      11.12571163      12.03954308       5.64510760      -0.06910626      -0.46950068       0.08792746
Li       5.67183117       2.31007897       8.94054659      -1.09620355       0.57298196      -0.23629252
Li       7.64433749       2.30809289       2.22742262      -0.75947434       0.39149926       0.33672875
Li      10.91757811       5.65161543       4.13137957       1.09585947       0.06446862       0.21433880
Li       2.23968158       5.77513839      10.64823928      -0.66379246      -0.45368031       0.23443461
Li       7.83359682       8.66679571       7.52339160      -0.63919360       1.12118415       0.04630510
Li      12.03813065       2.47408214       7.43093415      -0.28135025      -0.23345854       0.54799127
Li       1.96788575       1.18831040       5.56561211       0.30134678       0.04091915       0.27677356
Li       4.57929738       7.52012278       5.73383912      -0.03422198       0.55591289       0.06694387
Li      11.98263049       4.66758383       8.83458949       2.23530016      -0.24640653       0.71607132
Li       1.10116949       4.46278933       2.20361947      -0.40369804      -0.45600573       0.29440562
Li      -0.01477043       6.47643927       3.28090743      -0.05730533       0.29034302      -0.22912178
Li       0.00007923       6.77688869       9.98976533      -0.06679209      -0.30417517      -1.41177926
Li      -0.10163577      -0.07636469       0.01645984       0.42264708       0.14597441      -0.11056860
Li       6.72303604       6.40256741      -0.09993255      -0.46690161       0.30353809      -0.02446206
Li       2.53808984       9.07194344       6.45168531      -0.24415477      -0.55163458       0.49932547
Li      10.96755619       8.77292784       0.06114075       0.20797111      -0.06414705       0.81405425
Li       9.12143753       9.19810678       9.84764666      -0.37222000      -0.68415779      -0.82503773
Li       4.22145047       8.71729973       3.19874451       0.47318696       1.09890502      -0.08089712
Li      10.91272777      10.66635077       3.18672257      -0.04480835      -0.32248786      -0.01957119
Li       2.44387163      11.01210192       9.84353754      -0.25266879      -2.12470403      -0.11241697
Li       4.13752086      10.56958090       0.04618403       0.74451416      -0.33311265      -0.31521701
Li       2.46509974       4.24879723      -0.00237182      -0.42340945      -1.32227430      -0.54215315
Li      11.02860427       7.97619170      10.73237160      -0.46201993      -2.16383826      -0.37597356
Li       2.29832308       7.52893239       4.25880407      -0.80383175       0.84248464      -0.03595620
Li       7.59062440       4.44822405       0.74736059       0.39060695      -0.08683457       0.32823915
Li      12.12280707      10.79501130       1.01423315       1.07846342      -0.25456011      -0.25984197
Li       2.16555498      12.22997628      12.23350541      -0.49514769      -0.27141205      -0.23443755
Li       4.50058006       5.85926416      12.03287101      -0.07087463      -0.54921242       0.19516367
Li      12.23023672       8.60755086       2.51150859       0.46375343      -0.42332323      -0.12775414
Li       1.14201464       8.66619259       8.91516516       0.12337800       0.58808503      -0.31743662
Li       4.51352972      11.99508491      10.75260057      -0.19878240       1.72468986       0.10509374
Li       8.94237219      11.86350031       4.04678688       0.17280764       2.26054343       0.72380523
Li       1.06003851       2.29116909       0.92955682       0.38353244      -1.13109317       0.59327153
Li       5.46573061       8.63295094       0.90557502       1.84580551       0.21761253      -0.04837659
Li       8.83970459       7.92014183      12.28079108      -0.39138612      -0.47243805      -0.63194436
Li      10.90922789       1.42166596      12.26436531       0.37136279      -0.44689029      -0.76898631
Li       5.57121495      10.83983219       2.35277421       0.72998188      -0.21925347       0.06637725
Li       7.64903889      11.16089759       8.79378306       0.56683583       0.28195160       0.12939845
La       6.69217856      -0.01989913       0.10014286      -2.07530035       0.11998840      -1.34749482
La       6.48565932       0.37930403       6.47749227       1.27867052      -1.52163572       0.80326578
La      -0.06709784      -0.00333968       3.24439492       0.95974043       0.59095839      -0.40501474
La       6.57956865       6.49593078       3.24784714       0.67996311      -0.22509958       0.40603060
La       9.80971955       8.21952317       4.95332907       1.53722842       0.75073629      -1.16639925
La       9.98668296       1.76017746       4.79168753      -0.79704724       0.22684840       1.29689060
La       8.27820908       3.52616154       8.14295710      -0.17532458      -1.25133345       0.99410869
La      11.63869367       9.90707570       8.22745509      -0.40957691       0.23599836      -0.98050252
La       9.78406386       5.14914780      11.53169922       0.76603165       0.89266502      -0.96108308
La       9.81986089      11.51348918      11.36427521       1.76022259       1.88023159      -0.19345257
La       8.36075342       9.68383213       1.62590362       0.38514043       0.08037513       1.25100104
La      11.43918983       3.27075520       1.77935340       1.21160050       1.11336071      -0.59202491
La       0.04819090       6.67110872       6.72386752      -0.48361072       0.56304443      -2.22759664
La       0.13928587       6.61429173      -0.04403110      -1.38532725      -2.74654242       1.53405203
La       6.65428458       6.93147090       9.73643182      -0.47977018      -1.24854409       0.85432948
La      -0.07096933       0.23272443       9.74507676      -0.43489089       0.65403240       0.99489378
La       3.21694356       1.85217499      11.39705608      -0.27087846       1.49526772      -0.53466954
La       3.23825484       8.31615123      11.39163430       1.56978954       1.45759893      -1.19485292
La       1.97143859       9.72541268       1.69064770      -2.15617551       0.87341172       0.21966383
La       4.81358260       3.42928885       1.65647457       2.03155586      -2.51865610      -0.85392863
La       3.52683840      11.33278973       4.96653327      -1.61235665       1.50475665      -1.65177051
La       3.32024149       5.01076237       4.86480232       0.32896040      -1.45259294       0.55455089
La       1.62170536       3.59098573       8.22105205       0.29889127      -1.64549250       0.48064522
La       5.09275855      10.06515535       8.17178792      -0.99363174      -1.87181713       1.04805912
Zr       9.96401573       6.62604190       8.06887052      -0.39492339       1.06070325       2.04129604
Zr       9.90879403       0.16662613       8.18334800      -1.16721052       0.95474694      -0.38814299
Zr       6.48732581       3.52533734      11.43472297       0.46754676       1.18468966      -1.28117472
Zr       6.61643104       3.26378606       4.83918965      -0.10495007       1.92594195      -0.72548745