192
Lattice="12.88820256 0.0 -0.0 0.12255478 13.32260381 0.0 0.25353048 -0.25604531 12.87172325" Properties=species:S:1:pos:R:3:forces:R:3 Time=30.0 energy=-1419.6705703992648 stress="0.003104827814488813 0.004415074312347343 0.010001277769382822 0.004415074312347343 0.019803447086076318 -0.00810393027929273 0.010001277769382822 -0.00810393027929273 0.006355613041431944" pbc="T T T"
Li       6.30361718       0.23973654       9.38427787       0.34754096       0.34356944      -0.25151334
Li       6.48396418      13.08699702       3.15137911      -0.39875465      -0.47862953       0.20132388
Li       6.79662159       7.25566302       6.66934516       0.78013946      -0.39999890       0.36389446
Li       0.60089106      12.81738867       6.68912555      -0.24611085       0.14584682      -0.38458491
Li       9.08434494       2.12183595      12.44812575      -0.04332067      -0.01950022       0.32655609
Li       4.25471501       2.37457756       6.41097583      -0.18163225      -0.49688368       0.12969021
Li       2.36207347       2.31408296       3.71185539       0.74456291      -0.16867098      -0.45895122
Li      10.57610557       2.15028390      10.16548522      -0.04301270      -0.46337148      -0.48213219
Li       4.28986926       4.27166957       9.76081272      -0.14609713      -0.40974713      -0.08667799
Li       8.96387220       4.29665094       3.65852996      -0.01309819      -0.36874244      -0.27687318
Li      10.56192657       4.32858136       6.03996910       0.54505716      -0.27066308       0.33043912
Li       9.31743355      10.91596097       6.39947555      -0.40639003       0.24728768      -0.21229955
Li       4.38704911       0.85572352       4.24925915       0.24078384       0.19576730      -0.40869655
Li       8.47712100       0.57258621      10.66583816      -0.03689803       0.72419517      -0.43843780
Li       1.74460200      10.32616903       8.07061908       0.32677006      -0.75359767      -1.56522022
Li       5.64370933       4.91823990       7.15794591       0.18133322       0.00508377       0.04882163
Li       8.18243054       5.54853848       5.67703292       0.08878129      -0.24031454      -0.11410058
Li      11.00766013      12.41934009       5.51659610       0.78332800      -0.45778900       0.15673364
Li       5.34537311       2.68549310       8.40428952      -0.14607067      -0.13811326       0.07019527
Li       7.43489105       1.64118455       2.50636784       0.11651249       0.10458362       0.12121578
Li      10.89523372       5.77359887       4.05312064       0.29015644      -0.47538446      -0.02109410
Li       2.12341415       5.44907821      10.70539836      -0.18786393      -0.19654221      -0.23250183
Li       8.06917634       9.56099231       7.76514472       0.35816466      -0.44577536       0.08944258
Li      12.15239249       1.61026496       7.32028458      -0.12049228       0.15846410      -0.63489155
Li       2.28731786       0.99207895       5.68947390      -0.41224614      -0.32072181       0.01091712
Li       4.88751502       7.48353852       5.63451575      -0.94015934       0.16329115       0.17742671
Li      11.56256795       3.53502899       8.39701786       0.23698846       0.00071037      -0.34232969
Li       1.57463362       3.51915588       1.80714759       0.37944090       0.67561467      -0.45580396
Li       0.21396556       6.09784229       3.07708328       0.34186850      -0.08486301       0.39736226
Li      12.83137165       6.21664763       9.62174697      -0.18819858      -0.32654650       0.05434941
Li      12.80236353      13.17246800       0.04663905      -0.03737744       0.05568213       0.29918902
Li       6.66055158       6.16895450       0.27433090       0.36839935      -0.58800853      -0.39730062
Li       2.64124186       9.02084498       5.97590049      -0.04199483      -1.00432959       0.61892826
Li      10.45062120       8.95772528       0.01067208       0.76805185       0.39511506      -0.06799369
Li       9.17044798       8.73145597       9.96590463      -0.24833214       0.15125822      -0.23334920
Li       4.18251781       8.69067040       3.45457646      -0.11445963      -0.10178115       0.31771095
Li      10.68696605      10.99953147       3.38832032       0.28333511      -0.35852069       0.00947984
Li       2.69283974      10.69853575      10.08010567       0.04922081       0.29170408       0.46224686
Li       4.34664662      10.66520307      12.49065854       0.32844692       0.47669650       0.37648945
Li       2.62088807       3.82908982      12.45473529       0.04197040       0.60537887       0.06861054
Li      11.05564422       7.45717526      10.59993770       0.36578657      -0.00371785       0.02761005
Li       1.60174061       7.64226338       4.03122508       0.03193834      -0.03429981      -0.14951925
Li       8.06017501       3.50987041       1.55268224      -0.13255073      -0.02840751      -0.54146603
Li      11.77077736      10.58844760       1.41343961      -0.33992876       0.38003352      -0.12124099
Li       2.43367636      12.34991696      12.11972301      -0.45859605      -0.79475212      -0.47257184
Li       4.73845749       5.47989091      12.08177403      -0.23005373      -0.58164354       0.15689517
Li      12.07248375       8.24737070       2.46467036       0.02424170       0.20976312       0.08343285
Li       0.95643018       8.28260077       9.21514869       0.77890035      -0.04001896      -0.18029002
Li       4.93484350      12.05436933      10.49334000      -0.41650064       0.04732263      -0.16902270
Li       8.78468420      12.17655619       4.04863313      -0.31081593       0.22406817       0.04349105
Li       1.03115369       1.62447385       0.74666383      -0.07052632      -0.11116938      -0.38972960
Li       5.72628295       8.09482507       0.74756372      -0.45468814       0.48212313      -0.13258066
Li       8.53082795       7.47465069      11.91269832       0.10374115      -0.47445171       0.57370399
Li      11.08391481       0.70693828      11.85054623       0.06845402       0.03018781       0.73122198
Li       5.12849944      10.24206563       2.01168361      -0.14323515       0.94975343      -1.09378834
Li       7.65361648      11.61574130       8.92984531       0.07240590      -0.00170370       0.32089324
La       6.60370695      -0.23268703      12.83015529       0.59974095       0.06189416       0.57332476
La       6.78482473      13.15801330       6.40298902      -0.59056020      -0.53830727       0.17245645
La       0.14642574       0.09343000       3.34820265       0.04843538      -1.20999881      -1.11871651
La       6.62237439       6.53872695       3.22854593       0.29615102      -0.35477168       0.24858972
La      10.02026816       8.43391644       4.86522018      -1.07707953      -1.01717154       0.11803806
La       9.72480153       1.57449083       4.84812285       1.03217099       0.70310335       0.20315833
La       8.32475241       3.01582061       8.00403918       0.45889397       0.65876360       0.58081998
La      11.47047150       9.83353008       8.22269845       0.55523694      -0.18096533      -1.07244699
La       9.79288941       4.74529978      11.27425798       1.13064586      -0.03266067      -0.09811673
La      10.00614943      11.43454571      11.29979945       0.29136436       0.10164886       0.81066877
La       8.23068983       9.91281784       1.58915197      -0.63260793       0.76117540       0.53561145
La      11.38057977       3.29818000       1.56269039      -0.98100019      -0.06196046       0.06596206
La       0.22469472       6.72101269       6.51848613      -0.68594991      -0.92758104      -0.28663183
La      12.89072032       6.65500706       0.06400261       0.56808949      -0.20759900      -0.74216685
La       6.71177079       6.42842272       9.55356144       0.09489252      -0.43604409       0.41895826
La       0.37094666      -0.04575398       9.62427657      -1.19997161      -0.87389626       0.78940095
La       3.57104233       1.50196263      11.15423291      -0.22884755       0.11647190      -0.16447399
La       3.66599546       8.10392962      11.23871963      -1.47424257       0.12826009       0.83392315
La       1.78247787       9.96529743       1.54315294      -0.55787589      -0.16968341       0.66228279
La       4.78833617       3.26796253       1.66821479       0.75784866      -0.14521438      -0.29668065
La       3.45894636      11.44512716       4.78405082      -0.13622919       1.10250408      -0.08866895
La       3.48797909       4.91665259       4.88057241      -1.57994967       0.22475175      -0.10349422
La       1.75246733       3.23770861       8.00334761      -0.39068215       0.44671575       0.69041285
La       5.02237440       9.78003788       8.07561282      -0.38105345       0.52067814      -0.61316608
Zr       9.80773286       6.50943728       7.96772888       1.67414488      -0.64158458      -1.06199045
Zr       9.94400338      -0.12242810       8.15681635       0.50248740       0.89521446      -0.82701928
Zr       6.66413008       3.17270161      11.20676170       0.29363077      -0.47179571       1.24380665
Zr       6.51168331       3.11619063       4.90824955       0.84885512       0.96207378      -1.23155772
Zr       9.65932212       6.66578611       1.50681980       0.26598980      -2.05356819       1.06722957
Zr       3.27501753       6.50577881       8.19500180      -0.68183905       0.45408099      -1.40520727
Zr       6.62880474       9.92173759       4.82593400       0.98312100       0.47396673      -0.22587197
Zr      12.99523766       3.26405674       4.84939160      -0.63925128       0.86641348       1.44698809
Zr       3.41576042      13.28543453       1.52402809      -1.44573778       0.17256335       1.27359678
Zr       3.26476486       6.51972985       1.72479219      -1.31503486      -0.61966668      -0.25254965
Zr       0.21467678      10.05447441       4.87349007       0.05185476       0.17249591       0.01994409
Zr      13.13716314       9.91640539      11.38268113       0.42650129      -0.71041117       1.70807966
Zr       3.49840900      13.13833746       8.00085436       1.00799040      -0.52557480       1.16939418
Zr       9.64904923      -0.00426210       1.63770991       1.76031131       0.66116082      -1.41709875
Zr      13.05393238       3.00356059      11.20081250      -0.31112301       2.18005200       0.11581255
Zr       6.83522927       9.67762680      11.22264205      -0.85529598       1.42858571       1.48336193
O       10.71437744       6.19930427       6.08184425      -0.89732870       0.33616239      -0.84662851
O        9.28732639      12.88863132       6.19654464      -0.21407218      -0.59216051      -1.45073843
O        6.26230266       3.93412703       9.30076679       0.01701380       0.87342560      -0.00886712
O        7.01614126       3.91123018       2.95637530      -0.31422967      -0.27028634       0.80554703
O        2.70778992       0.37710486       3.52195873      -0.56150605       0.13697282       0.88481188
O       10.63969464       0.16684679      10.03723268      -0.58929175       0.33952774       0.84010571
O        6.85938317       2.58008662       0.22687595       0.04699144      -0.19752624       0.68380732
O        6.21533028       2.50048778       6.83522618      -0.59292227      -0.25489495      -0.16445037
O       10.64155572       6.84151195      12.54213792      -0.30890856       0.07465658      -1.45216496
O        9.20160503       0.23998071      12.55580652       0.16043599      -0.75221783      -0.42461638
O       12.53118771       2.28921335       9.30786097       0.42838307      -0.42735260       0.11045045
O        0.60695240       2.52099381       2.91584966      -0.43165095      -0.31123812       0.38464152
O        9.08018359       6.12900872       3.43759100      -0.71365537       0.38086613       1.07272129
O        4.02623053       6.07375382      10.07094826       0.36137142       0.34601779       1.11478581
O        0.56428334       3.96806950       0.17804843      -0.73647374      -0.50897588       1.30187133
O       12.44061201       3.73222171       6.87162058       1.24730147      -0.50820816      -1.42484480
O        1.58775847       0.65505865       7.68192802      -1.21985273       0.48349198      -0.62173965
O        5.20676798       7.16283582       7.68435680       1.15894589       0.04828070      -0.32489346
O        7.16571923       1.19823220       4.53307879       0.69206727      -0.62383215      -0.79829392
O        6.03427618       1.17634932      10.83130715      -0.59393369      -0.11219377       0.53216138
O       11.53715548       5.94322361       2.10365672       0.87173967       0.02526947      -0.37831117
O        1.36171480       5.79251481       8.58657927       0.88959295       0.15153310      -0.17570304
O        5.98488823       5.13477010       5.22329601      -0.46073292       0.86238723       0.54071064
O        1.03214046      11.96837730       5.18762420       0.29752321      -0.79695360      -0.45778695
O        7.97105546       5.81973145       7.48387545      -1.72855395       0.14814630       0.11583104
O       11.98653137      12.60383497       7.68947774      -0.10758683      -0.45002486       0.06348321
O        0.80066572       5.21152058       4.69438666       0.22094212      -0.01418424      -0.47574368
O        5.87198343      11.87147339       4.48318946      -0.13986039       0.16646172       0.15449548
O       11.65479502       7.24475495       8.46269818       1.34442849       1.45294556       1.22077382
O        7.99734661       0.52679593       8.44499011      -1.17743348      -0.21075043       0.66021786
O       12.34535366       1.18108234       5.21591266      -0.33308016       0.63733349       0.24860534
O        7.44370738       8.04597387       5.17143050      -0.27801889      -0.96414735      -0.14298439
O       10.17254459       8.54548686       2.14708269      -0.29546311       0.52997097       0.45240045
O        9.36389134       2.04162795       2.32701797      -0.51801986      -0.80165934       0.51710102
O        8.46495457       3.54894869       5.65731783       0.86981145       0.21864732      -0.78517235
O        4.76026828       3.52184886      11.91203085      -0.79967237       0.33932447      -0.17451599
O        9.29167419       4.57236257       0.88106190       1.13969031       1.11467939      -0.71569671
O        3.79149220       4.55167750       7.60252717       0.30103311      -0.25593575      -0.55642908
O       11.28034314       9.43916780      10.72700504      -1.33741272      -0.53609133      -1.10146926
O        8.55606015       2.64833931      10.57051813       1.15518427      -0.01515141      -0.30709515
O       10.26629941       4.59312577       8.67922024      -1.87319049       0.17429688       0.45859308
O        9.54199567      11.27751487       8.66777016      -0.00924257      -1.28285695       0.26095532
O        2.06756671       2.86753274       5.62652959       0.83473793      -0.38073695      -0.39987890
O        4.75333436       9.40466957       5.53753379      -0.83445772      -0.30326327       0.00416558
O        9.56971278       8.62135390       7.30090198       0.35645103       0.14457176      -0.02371147
O       10.30466115       1.80112904       7.34738497      -0.95926360       0.16513844       0.07986581
O       11.10495280       3.66302863       4.17053565      -0.96941560       0.08438657      -0.17882709
O        8.59623847      10.38997244       4.04113594       0.64542846      -0.37767803       0.04281758
O        4.34405704      12.62907844      12.48612810      -0.01881629       0.07225101      -0.93664247
O        2.65378047       5.78637289      12.77668957       0.74805118       0.07842686      -1.43011807
O       12.68149010      10.73810768       2.96611128      -0.30908659      -0.16840550       0.14637440
O        0.76741074      10.36855186       9.49006454      -0.47610802      -0.03203165      -0.12069804
O        9.11816745       6.82456912       9.82796430      -0.49561560       1.08607322       2.45403511
O        4.07888781       6.83157067       3.59562041       0.74131972       0.58622378       1.30225774
O        0.65402673       9.10378775       6.68882477      -0.09824586       0.63008771       0.92959071
O       12.46085786       9.26732948       0.50317963       0.84231044      -0.51448856      -1.01238142
O        4.05847778       0.23159775       6.16396935       0.29270073       1.02253544      -1.15570380
O        2.63079088       6.91339221       6.28155741       0.57149541       0.07520224      -0.91734071
O        6.20608977       9.23856168       2.97250457      -0.58278132      -1.38301647      -1.02646620
O        7.16722107       9.05680983       9.29060245       0.04522438       0.02421893       0.38333129
O        2.80698829      12.61254024      10.04767719       0.23482327       0.53011001      -0.31091389
O       10.63035864      12.81143223       3.51010081      -0.91200486       0.61771150       0.64194637
O        7.09823070      10.65195239       6.67846993       0.35748766       0.70895055       1.34856512
O        6.05176862      10.63453658       0.37775741       0.41738041      -0.86155019      -1.05465285
O        7.75900191       7.34997838       1.10571593      -0.70680762       0.87363000       0.05587808
O       11.59073531       0.85565663       1.15335473      -0.29835835       0.11312891       0.22418480
O        0.90262867       7.75094365      11.00322284       0.12128444       0.21941792      -0.03772209
O       12.39970520       7.93970022       4.40336734      -0.19724991       0.72519992      -0.19302061
O        5.32578651      12.36461050       8.54137764       1.44009713      -0.31288893       0.24006051
O        7.89881071      12.73225416       2.00366295      -0.31916828       0.08064521       0.59635794
O       12.43515171      11.86756458      11.62871853      -0.08343922      -0.88965541      -0.58407436
O        7.43517894       5.10375091      11.65865485      -0.02992298      -0.13671282      -1.23637140
O        1.34473804      12.74347182       1.10154978       1.16728016       0.51125263       0.02191367
O        5.17266366       5.90344283       1.28404180       0.76142457      -0.00664548      -0.66028871
O        7.45674553      11.67381648      11.00257652       0.19657130       0.25775735      -1.03332004
O       12.34300022       5.05828209      10.94403447      -0.16478093      -0.14713707       0.67923227
O        5.06797681       0.65629147       2.01227907       1.90541536       0.74811273       0.26845052
O        1.45862803       7.33200154       2.16059118      -1.73844554       0.09431048       0.35355367
O        6.06066448       7.67146339      11.61712163      -0.00446295       0.58979550      -0.00089673
O        0.92969837       1.18866764      11.58877563       0.53892176      -1.53101743       0.67529163
O        3.80588772       1.88148550       8.77905149      -0.46876512      -0.87420327      -0.10520483
O        3.00688016       8.57908061       8.69673986       0.18815408      -0.08091156       1.21651419
O        2.22336746      10.18383265      12.05300679       1.06079808       0.04610690      -0.29998346
O       11.20117818      10.41638720       5.59814949      -1.04327999       0.17818476       0.14137535
O        3.15466098      11.20960616       7.27228661       0.01951355      -0.16071932      -0.07523899
O       10.14294234      11.22355198       0.93297299      -0.85113776       1.21733581       0.04429008
O        4.67300371       2.77399311       4.12005535      -0.84850661       0.04697744       0.83085792
O        2.03181430       9.45035188       4.16978763       1.67389912       0.24753896      -0.15145303
O        3.65434217      11.36146222       2.12384573      -0.16877852      -1.06035396       0.63074652
O        2.94060749       4.48335839       2.56421469       0.53907118       0.43440420      -0.01687687
O        8.78993758       9.37907636      11.93612325      -0.54857039      -0.87078523      -0.47498643
O       11.13010451       2.63108962      11.92179136      -0.48750744       0.03068439       0.07497981
O        2.94071526       2.00748656       0.82884114      -0.52670816       0.20493184      -0.36435617
O        3.58515903       8.43432551       1.04670773       1.35578262       0.97792487      -0.68649851
O        4.83834694      10.20807806      10.57488874      -0.16079575      -1.09520922       0.24730686
O        2.05787342       3.44322802      10.51888602       1.25555358       0.47146651      -0.26151504
192
Lattice="12.652237977998867 2.730817944380473e-17 -1.5151163008505592e-17 0.4713125967323286 13.172005163819446 -1.863736425634891e-17 -0.6057238004647735 0.49168745392583374 12.889899030076812" Properties=species:S:1:pos:R:3:forces:R:3 energy=-1403.4174392587158 stress="-0.06601572136042026 0.02106108784111945 -0.03041673733208959 0.02106108784111945 -0.01843016401823443 0.026717141404765186 -0.03041673733208959 0.026717141404765186 -0.0008808408021313835" pbc="T T T"
Li       5.93203578       0.20653557       9.62738522      -0.17238664       1.15992419       0.36496598
Li       6.10546925       0.04884517       3.26144051       0.17695732       1.01812247      -0.86229459
Li       6.33713204       6.94178603       6.58679490      -0.78927542      -0.44772253      -1.29549095
Li      -0.44552539       0.16172651       6.35736354       1.20876764       0.00552976       0.45114679
Li       8.74405515       2.34113459       0.17921297      -0.43171997      -0.50654313      -0.51613193
Li       3.83393289       2.66711277       6.35717187      -0.92999984       0.41626967      -0.08089636
Li       2.37207677       2.47438811       3.19743135      -0.26620560       0.20120952       0.56380108
Li       9.85801264       2.68967435       9.74775593       0.33392754       1.04083162       0.09047747
Li       3.69742942       4.54154964       9.69769530      -0.01233886      -0.49381018      -0.80563851
Li       8.63746599       4.35821178       3.25577977      -0.23256201       0.24115775       0.03119069
Li      10.12187819       4.30822405       6.34162832      -0.29796452       0.90472727       0.22869658
Li       8.65981700      11.02730387       6.62675790      -0.09255507       0.02289337      -0.50390235
Li       4.00649683       1.20662455       4.24661783       0.05325845       0.28942468      -0.25914293
Li       7.98441622       1.40513137      10.63926651      -0.85695730       0.72437093      -0.27231864
Li       1.13280352      11.41588723       7.31488430      -1.95582551      -0.48714482       0.10784639
Li       5.13393134       4.60390205       7.28600071      -1.00724421       0.86605293      -0.02448646
Li       8.18972155       5.84596089       5.53764063       0.04139095       0.08346630      -0.29248192
Li      10.79132401      12.34136890       5.62890492      -0.44396510      -0.46348663      -0.63343602
Li       5.04065256       2.46060704       8.78597680       0.35574730      -0.10528181      -0.01891525
Li       7.30529724       2.18307060       2.15428628      -0.75013060       0.13112066       0.47066236
Li      10.62753340       5.82186315       4.01504538      -0.19734645      -0.44538934       0.43739685
Li       1.79872665       5.96460058      10.37927373      -0.50181580      -0.48564385       0.21957762
Li       7.41106991       8.88726399       7.42380151      -0.71247144       0.33961865      -0.21093147
Li      11.50214534       2.35398459       7.26177412      -0.91603363      -0.44094094       0.17853424
Li       1.75787020       1.23613984       5.63168213      -0.13831039       0.34152193       0.03402001
Li       4.30916061       7.78878346       5.48899497      -0.05122180       0.06854976       0.38670276
Li      11.49872177       4.69531859       8.68687029      -0.71134633       0.77190935       0.61596547
Li       1.14696751       4.40660742       2.43516866      -0.28617644      -0.36641608      -0.18903735
Li       0.21158758       6.64530015       3.33445824      -0.23063529       0.43000136      -0.62845155
Li      -0.09690774       6.89983355       9.80325303      -1.42224415       0.16658949      -0.88144854
Li      -0.09040101      -0.07425507      -0.03911915       0.21293115      -0.13898602      -0.08496764
Li       6.46935285       6.67553791       0.06253355       0.05112082      -1.26125657       0.24506497
Li       2.32677877       9.27511857       6.42147527      -0.31466819      -0.33841464       0.44803094
Li      10.55435255       9.05096206       0.08856230       0.79911725      -0.16431163      -0.74658330
Li       8.40649890       9.38935972       9.73555851       1.46528233      -1.18383757       0.21874050
Li       4.19411709       9.16209294       3.38285135       0.20359431      -0.48905173      -0.65901828
Li      10.47828082      10.79134231       3.30841128       0.37918820       0.52641186       0.08100130
Li       2.16271694      11.23149468       9.69313477      -0.15154764       0.17013733      -0.30164790
Li       4.58768838      10.80765323       0.04108847      -1.66174403       0.48708718      -0.00614643
Li       2.46726817       4.26351921      -0.13494073       0.18912630      -0.43191401       0.11907039
Li      10.42775364       8.03458814      10.64417996      -0.40372286      -0.24553275      -0.76899606
Li       2.29912641       7.71780983       4.16175474      -1.57707741       1.67326382       0.40811717
Li       7.47537216       4.36828029       0.92991811      -0.35669196       0.35185297       0.26564201
Li      12.13170408      10.95461888       0.94558874      -1.47144079       0.85097368      -0.28878764
Li       1.87053943      12.73636160      12.01136695       0.24292196      -0.56154918      -0.59904941
Li       3.86334858       6.02077028      12.12275883       0.85166800      -0.64070207      -0.02291443
Li      11.90909758       8.75027830       2.24432817      -0.36296282      -0.12621267       0.47480842
Li       1.01419193       8.91635571       8.72374904      -1.11470007       0.21129342       0.05942640
Li       4.21061050      12.43678760      10.43800747      -0.03061547       0.41936722       0.54490337
Li       8.69464909      12.31234535       3.98909996      -0.44277436      -0.27207779       1.08918948
Li       0.95861832       2.08126957       0.97238895       0.49837403       0.38036578       0.00923573
Li       5.64842787       8.61446349       0.92361207      -0.03289778       0.90622988       0.20117660
Li       8.04689313       7.96798212      12.11345308      -0.16218010       1.13246170      -1.00198210
Li      10.16407280       1.39627262      11.99358715      -0.46712050       0.28146459       0.05612291
Li       5.77852184      11.12862856       2.32921762      -0.59664957      -0.50092302      -0.62017856
Li       7.31734629      11.40986687       8.95708164      -0.99614779       0.05973023      -0.39414926
La       6.35610876       0.15681258       0.01356884      -1.36144757      -0.46654419      -1.06151116
La       6.08684135       0.20195981       6.28906440      -0.04808694       0.73814083       2.15733718
La      -0.12655822       0.21681835       3.10866581      -1.08261046       0.29375251       1.88568086
La       6.33190456       6.70828942       3.22424419       0.95183157       0.79905906       0.74294947
La       9.58429451       8.53640903       4.77134997      -0.94243559      -1.07719933       0.82584941
La       9.39358004       2.04028174       4.79578194      -0.81793123      -4.85668983       0.33032762
La       7.74362291       3.58009597       7.93596426      -1.82082837       0.26951625       2.25265006
La      10.93796875      10.01717727       8.04548883       2.07444449      -0.89816497       0.26427755
La       9.01424202       5.33560387      11.41902331       0.69437645      -0.39769819      -3.16499672
La       9.33297378      11.81748778      11.12818232       0.63954268       1.03316686       1.09886084
La       8.32622452       9.99749522       1.48595737      -2.39880038      -0.20309464       0.19653884
La      11.03891336       3.50828515       1.65655632       1.73609032      -2.16957340       0.89710436
La      -0.11367333       6.88105947       6.27889880       0.92565384       0.65746113       2.78410577
La       0.16678307       6.55871960      -0.05388573       0.80622519       0.06845325      -0.59186657
La       5.98289058       6.90610272       9.61493695       3.05446718      -0.95487210       0.13038848
La      -0.53819658       0.48697338       9.61337824       1.77929807      -1.36180904       1.01921299
La       2.67296507       2.18999440      11.43133810       1.70589593      -2.58654670      -0.23930385
La       3.01168826       8.63830867      11.34209643      -1.26428828       1.79457359       0.12993175
La       1.75943983      10.00022476       1.69666052       3.12765344      -0.93260075      -1.54768579
La       4.79572482       3.48790783       1.74250446      -0.30685770      -1.96993831      -0.76370323
La       3.38088760      11.73833598       4.66914780      -0.90454074      -0.44122826       2.53765528
La       3.10526669       5.22213003       4.68955477       0.38954794      -2.42355087       2.75290088
La       1.18812091       3.52024303       8.13235145       3.73317545       0.59017822      -0.51723746
La       4.80593314      10.04282196       8.05559224      -2.13142547       1.93591755      -0.99645604
Zr       9.36023618       6.74689674       7.98102340       1.30845141       3.64649161       1.08052055
Zr       9.18112475       0.17694042       7.99212809      -2.75529715       2.96426649      -0.22752460
Zr       5.83700547       3.89488189      11.26868238      -0.04011903      -6.05451118      -1.67400207
Zr       6.25103808       3.28813445       4.87340312      -3.05553400       2.50037304      -0.79999944
Zr       9.66304900       6.61227842       1.52915904      -2.72183656       2.76215610       2.03271307